# vtk DataFile Version 3.0
vtk output
ASCII
DATASET UNSTRUCTURED_GRID
FIELD FieldData 1
avtOriginalBounds 1 6 double
-0.75 0.75 -0.5 0.5 0 0 
POINTS 1749 double
0.464209 0.29838 0 0.464543 0.273177 0 0.493089 0.27527 0 
0.492788 0.30024 0 0.464877 0.247975 0 0.493389 0.250301 0 
0.521902 0.252626 0 0.521635 0.277364 0 0.522436 0.203152 0 
0.49399 0.200361 0 0.494291 0.175391 0 0.522703 0.178414 0 
0.234375 0.33762 0 0.234976 0.310557 0 0.263588 0.312185 0 
0.263021 0.339016 0 -0.0853365 -0.395633 0 -0.0863381 -0.365779 0 
-0.114247 -0.372458 0 -0.1132 -0.402571 0 0.231971 0.445873 0 
0.232572 0.41881 0 0.261318 0.419508 0 0.260751 0.446339 0 
0.233173 0.391747 0 0.261886 0.392677 0 0.526709 -0.192646 0 
0.526442 -0.167908 0 0.498498 -0.174189 0 0.498798 -0.199158 0 
0.526175 -0.143171 0 0.498197 -0.149219 0 -0.319515 -0.310988 0 
-0.320503 -0.279876 0 -0.350917 -0.280541 0 -0.34994 -0.311791 0 
0.230769 0.5 0 0.23137 0.472937 0 0.260183 0.473169 0 
0.259615 0.5 0 -0.321402 -0.248953 0 -0.291383 -0.247601 0 
-0.292615 -0.216126 0 -0.322545 -0.217507 0 -0.337903 0.250349 0 
-0.367272 0.250182 0 -0.366331 0.219008 0 -0.336923 0.219252 0 
-0.393049 0.125044 0 -0.363408 0.125273 0 -0.3644 0.156555 0 
-0.393971 0.156337 0 0.492488 0.32521 0 0.463876 0.323582 0 
0.520299 0.401051 0 0.491587 0.40012 0 0.491887 0.37515 0 
0.520566 0.376313 0 -0.351817 -0.249455 0 -0.378653 -0.374898 0 
-0.347933 -0.374408 0 -0.348979 -0.343009 0 -0.379609 -0.343532 0 
-0.317249 -0.373837 0 -0.318433 -0.342304 0 -0.380497 -0.312311 0 
-0.261487 -0.245988 0 -0.262896 -0.214294 0 0.233774 0.364684 0 
0.262453 0.365846 0 0.235577 0.283494 0 0.264156 0.285354 0 
0.290598 0.393608 0 0.291132 0.367009 0 0.20446 0.390816 0 
0.205095 0.363521 0 0.178419 0.279772 0 0.206998 0.281633 0 
0.206364 0.308929 0 0.177751 0.307301 0 0.582532 -0.179621 0 
0.582732 -0.203893 0 0.61061 -0.197147 0 0.610443 -0.173108 0 
0.582933 -0.228165 0 0.610777 -0.221187 0 0.638622 -0.214209 0 
0.638488 -0.190402 0 0.465545 0.19757 0 0.49369 0.225331 0 
0.465211 0.222772 0 0.521368 0.302101 0 0.462874 0.39919 0 
0.463208 0.373987 0 0.463542 0.348785 0 0.492188 0.35018 0 
0.520833 0.351576 0 0.405449 0.397329 0 0.405849 0.371661 0 
0.434529 0.372824 0 0.434161 0.398259 0 0.554854 -0.210638 0 
0.555088 -0.235143 0 0.554621 -0.186133 0 -0.325527 -0.124128 0 
-0.324608 -0.155094 0 -0.294771 -0.153837 0 -0.295704 -0.123001 0 
-0.263959 -0.183342 0 -0.293637 -0.185101 0 0.290064 0.420206 0 
0.28953 0.446804 0 0.526976 -0.217383 0 0.527244 -0.242121 0 
0.124199 0.164076 0 0.152644 0.166867 0 0.151943 0.194628 0 
0.123464 0.19207 0 0.14984 0.277911 0 0.150541 0.25015 0 
0.179087 0.252244 0 0.0657051 0.215411 0 0.0665064 0.186952 0 
0.0949853 0.189511 0 0.0942174 0.217737 0 0.292735 0.287215 0 
0.292201 0.313813 0 0.291667 0.340411 0 -0.112165 -0.432658 0 
-0.0843349 -0.425487 0 -0.1411 -0.409429 0 -0.140013 -0.439788 0 
0.12273 0.220063 0 0.121995 0.248057 0 0.0934495 0.245964 0 
0.29594 0.127626 0 0.295406 0.154225 0 0.266994 0.151201 0 
0.267561 0.12437 0 0.407051 0.294658 0 0.407452 0.26899 0 
0.435998 0.271084 0 0.43563 0.296519 0 -0.394866 0.187573 0 
-0.365362 0.187773 0 -0.14321 -0.348848 0 -0.142186 -0.379073 0 
-0.115263 -0.342411 0 -0.323614 -0.186221 0 0.121261 0.276051 0 
0.0926816 0.27419 0 0.0104167 0.152911 0 0.0388622 0.155702 0 
0.0380275 0.184394 0 0.00954861 0.181835 0 0.205729 0.336225 0 
0.471554 -0.256076 0 0.44371 -0.263054 0 0.444077 -0.288489 0 
0.471888 -0.281279 0 0.415865 -0.270032 0 0.416266 -0.2957 0 
0.416667 -0.321367 0 0.444444 -0.313924 0 0.472222 -0.306481 0 
-0.335908 0.188081 0 -0.33486 0.156839 0 0.407853 0.243323 0 
0.436365 0.245649 0 0.151242 0.222389 0 0.179754 0.224715 0 
-0.504808 -0.25 0 -0.474159 -0.25 0 -0.474835 -0.21875 0 
-0.505409 -0.21875 0 -0.44351 -0.25 0 -0.444261 -0.21875 0 
-0.445012 -0.1875 0 -0.475511 -0.1875 0 -0.50601 -0.1875 0 
-0.396648 0.250029 0 -0.395769 0.218826 0 -0.333778 0.125523 0 
0.40625 0.345994 0 0.434896 0.347389 0 -0.0873397 -0.335924 0 
-0.138889 -0.470228 0 -0.111111 -0.462785 0 -0.0833333 -0.455342 0 
-0.381407 -0.281043 0 0.0673077 0.158494 0 0.0957532 0.161285 0 
0.0641026 0.272329 0 0.0649038 0.24387 0 -0.382252 -0.249913 0 
0.125668 0.108089 0 0.097289 0.104832 0 0.0980569 0.076606 0 
0.126402 0.0800949 0 0.0689103 0.101576 0 0.0697115 0.073117 0 
0.18109 0.169658 0 0.180422 0.197187 0 0.175748 0.389886 0 
0.176416 0.362358 0 0.177083 0.334829 0 -0.259504 -0.307586 0 
-0.260689 -0.276373 0 -0.290477 -0.278379 0 -0.289333 -0.309665 0 
0.69351 0.0798479 0 0.693576 0.0565061 0 0.721788 0.0609254 0 
0.721755 0.0840346 0 0.183761 0.0595442 0 0.183093 0.0870727 0 
0.154748 0.0835838 0 0.155449 0.0558227 0 0.237981 0.17524 0 
0.238582 0.148177 0 0.266426 0.178032 0 0.75 0.0424681 0 
0.75 0.0653447 0 0.721822 0.0378162 0 0.75 0.0882213 0 
0.638355 -0.166595 0 0.638221 -0.142788 0 0.610276 -0.149068 0 
0.209535 0.172449 0 0.21017 0.145153 0 0.239183 0.121114 0 
0.210804 0.117858 0 0.182425 0.114601 0 0.181757 0.14213 0 
0.582131 -0.131076 0 0.582332 -0.155348 0 0.61011 -0.125029 0 
0.637821 -0.0713673 0 0.609776 -0.0769496 0 0.609943 -0.100989 0 
0.637954 -0.0951743 0 0.294872 0.180823 0 0.583333 -0.276709 0 
0.611111 -0.269266 0 0.610944 -0.245227 0 0.583133 -0.252437 0 
0.638755 -0.238016 0 0.638889 -0.261823 0 0.554153 -0.137124 0 
0.55392 -0.112619 0 0.525908 -0.118434 0 0.525641 -0.0936964 0 
0.553686 -0.0881141 0 0.638088 -0.118981 0 0.581931 -0.106804 0 
0.581731 -0.0825319 0 0.468884 -0.0544559 0 0.496995 -0.0493388 0 
0.496695 -0.0243689 0 0.46855 -0.0292533 0 0.693243 0.173215 0 
0.721621 0.176471 0 0.721588 0.199581 0 0.693176 0.196557 0 
0.241587 0.0128607 0 0.242187 -0.0142026 0 0.270399 -0.00978334 0 
0.269832 0.0170474 0 0.298077 0.0212341 0 0.298611 -0.00536405 0 
0.299145 -0.0319622 0 0.270967 -0.036614 0 0.666166 -0.136508 0 
0.666066 -0.112934 0 0.694044 -0.106886 0 0.694111 -0.130228 0 
0.527778 -0.291595 0 0.527511 -0.266858 0 0.4997 -0.274068 0 
0.5 -0.299038 0 0.636485 0.166702 0 0.636619 0.142895 0 
0.664964 0.146384 0 0.664864 0.169959 0 0.693309 0.149873 0 
0.693376 0.126531 0 0.665064 0.12281 0 0.636752 0.119088 0 
0.693109 0.219899 0 0.664663 0.217107 0 0.664764 0.193533 0 
0.636351 0.190509 0 0.636218 0.214316 0 0.75 0.179728 0 
0.75 0.202604 0 0.415064 -0.218696 0 0.415465 -0.244364 0 
0.443343 -0.237619 0 0.442975 -0.212184 0 0.499399 -0.249098 0 
0.242788 -0.0412659 0 0.522169 0.227889 0 -0.384089 -0.18734 0 
-0.383199 -0.218565 0 -0.352839 -0.218107 0 -0.353795 -0.1869 0 
0.721554 0.22269 0 0.580929 0.0145568 0 0.552751 0.00990488 0 
0.552985 -0.0145999 0 0.58113 -0.00971539 0 0.58133 -0.0339876 0 
0.553218 -0.0391046 0 0.75 0.133974 0 0.75 0.156851 0 
0.721655 0.153362 0 0.721688 0.130253 0 0.637019 0.0714745 0 
0.637153 0.0476675 0 0.665365 0.0520868 0 0.665264 0.0756612 0 
0.46688 0.0967594 0 0.467214 0.0715568 0 0.495493 0.0755109 0 
0.495192 0.100481 0 0.523504 0.104202 0 0.523771 0.079465 0 
0.468216 -0.0040508 0 0.496394 0.000601094 0 0.496094 0.025571 0 
0.467882 0.0211517 0 0.467548 0.0463543 0 0.495793 0.050541 0 
0.524038 0.0547277 0 0.524306 0.0299903 0 0.524573 0.00525299 0 
0.41266 -0.06469 0 0.413061 -0.0903578 0 0.441139 -0.0850081 0 
0.440772 -0.059573 0 0.469217 -0.0796584 0 0.0705128 0.0446582 0 
0.0988248 0.0483797 0 0.438568 0.0930378 0 0.438936 0.0676027 0 
0.439303 0.0421676 0 0.411058 0.0379809 0 0.410657 0.0636486 0 
0.410256 0.0893163 0 0.494892 0.125451 0 0.466546 0.121962 0 
0.466213 0.147164 0 0.494591 0.150421 0 0.52297 0.153677 0 
0.523237 0.12894 0 0.411458 0.0123131 0 0.43967 0.0167324 0 
0.411859 -0.0133546 0 0.440037 -0.00870269 0 0.351763 0.186405 0 
0.351295 0.212538 0 0.322817 0.209979 0 0.323317 0.183614 0 
0.294338 0.207421 0 0.350828 0.238671 0 0.37934 0.240997 0 
0.378906 0.266897 0 0.350361 0.264804 0 0.349893 0.290937 0 
0.378472 0.292797 0 0.380208 0.189196 0 0.379774 0.215096 0 
0.408253 0.217655 0 0.408654 0.191987 0 0.293269 0.260617 0 
0.321815 0.26271 0 0.321314 0.289076 0 0.127137 0.0521012 0 
0.348024 0.395468 0 0.376736 0.396399 0 0.376302 0.422299 0 
0.347556 0.421601 0 0.347089 0.447734 0 0.375868 0.448199 0 
0.404647 0.448665 0 0.405048 0.422997 0 0.319812 0.368172 0 
0.319311 0.394538 0 0.37717 0.370498 0 0.377604 0.344598 0 
0.348958 0.343202 0 0.348491 0.369335 0 0.068109 0.130035 0 
0.0965211 0.133058 0 0.318309 0.447269 0 0.31881 0.420903 0 
0.346154 0.5 0 0.317308 0.5 0 0.317808 0.473634 0 
0.346621 0.473867 0 0.288996 0.473402 0 0.154046 0.111345 0 
0.153345 0.139106 0 0.124933 0.136082 0 0.375434 0.4741 0 
0.375 0.5 0 0.403846 0.5 0 0.404247 0.474332 0 
0.322316 0.236345 0 0.320312 0.341807 0 0.349426 0.31707 0 
0.320813 0.315441 0 0.296474 0.101028 0 0.32482 0.104517 0 
0.324319 0.130883 0 0.352698 0.134139 0 0.353165 0.108006 0 
0.353632 0.0818733 0 0.325321 0.0781518 0 0.297009 0.0744303 0 
0.323818 0.157248 0 0.35223 0.160272 0 0.288462 0.5 0 
0.469551 -0.104861 0 0.441506 -0.110443 0 0.413462 -0.116026 0 
0.440405 -0.0341378 0 0.41226 -0.0390223 0 0.525107 -0.0442217 0 
0.52484 -0.0194844 0 0.499099 -0.224128 0 0.378038 0.318698 0 
0.406651 0.320326 0 0.293803 0.234019 0 0.497596 -0.0992787 0 
0.497296 -0.0743087 0 0.525374 -0.0689591 0 0.553452 -0.0636094 0 
0.58153 -0.0582597 0 0.470887 -0.205671 0 0.471221 -0.230874 0 
0.637553 -0.0237534 0 0.63742 5.35833e-05 0 0.609275 -0.0048309 0 
0.609442 -0.0288705 0 0.609108 0.0192087 0 0.637286 0.0238606 0 
0.609609 -0.05291 0 0.637687 -0.0475604 0 0.554387 -0.161628 0 
0.00868056 0.210759 0 0.0371928 0.213085 0 0.75 0.225481 0 
0.693643 0.0331643 0 0.665465 0.0285124 0 0.665164 0.0992356 0 
0.693443 0.10319 0 0.636886 0.0952815 0 0.75 0.111098 0 
0.721721 0.107144 0 0.497897 -0.124249 0 0.470219 -0.155266 0 
0.469885 -0.130063 0 0.470553 -0.180469 0 0.436732 0.220214 0 
0.437099 0.194778 0 0.694177 -0.15357 0 0.666266 -0.160083 0 
-0.153907 -0.0456224 0 -0.152849 -0.0759202 0 -0.12459 -0.0716026 0 
[...]
POINT_DATA 1749
SCALARS density_aux double
LOOKUP_TABLE default
1.22207 1.22216 1.22217 1.22232 1.22205 1.22193 1.22405 1.22183 1.26222 
1.24151 1.27376 1.30888 1.2221 1.22213 1.22231 1.22233 1.86189 1.66242 
1.57249 1.76478 1.22223 1.22211 1.22241 1.22225 1.22201 1.22238 2.25459 
2.26126 2.26208 2.25406 2.26796 2.26821 1.22213 1.22194 1.22184 1.22215 
1.22228 1.22225 1.22214 1.22206 1.22188 1.22184 1.2219 1.22199 1.22224 
1.2222 1.22219 1.22212 1.22224 1.22223 1.22215 1.22221 1.22231 1.22213 
1.22208 1.2223 1.22241 1.22198 1.22186 1.22229 1.22225 1.22209 1.22232 
1.22225 1.22239 1.22195 1.22193 1.22183 1.22204 1.22243 1.22216 1.22231 
1.22205 1.22204 1.22237 1.22238 1.22217 1.22226 1.22232 1.22213 2.25356 
2.24421 2.2444 2.25312 2.23374 2.23329 2.23305 2.24382 1.22885 1.22586 
1.22249 1.22214 1.22206 1.22199 1.22199 1.22247 1.22194 1.22208 1.222 
1.22245 1.22236 2.24436 2.23368 2.25454 1.2221 1.22213 1.22216 1.22214 
1.22204 1.2221 1.22215 1.22224 2.24511 2.23366 1.22229 1.22224 1.22229 
1.22228 1.22223 1.22214 1.22229 1.22226 1.2223 1.22228 1.22226 1.22215 
1.22213 1.22203 1.92704 2.01981 1.6634 1.82344 1.22224 1.22231 1.22218 
1.22208 1.22229 1.22218 1.22223 1.22205 1.22222 1.22219 1.22225 1.22222 
1.22213 1.36605 1.48822 1.4245 1.22212 1.22221 1.22223 1.22238 1.22227 
1.22226 1.22232 1.22236 2.2344 2.2342 2.22391 2.22416 2.23386 2.22388 
2.21692 2.21744 2.21711 1.22219 1.22223 1.22228 1.22213 1.22221 1.22224 
1.22216 1.22214 1.22216 1.22218 1.22211 1.2222 1.22212 1.22213 1.22214 
1.22219 1.22209 1.22225 1.22202 1.22246 1.49205 2.28394 2.33449 2.35321 
1.22186 1.22234 1.22225 1.22227 1.22231 1.22197 1.22229 1.2223 1.22227 
1.22219 1.22226 1.22218 1.22226 1.22223 1.22204 1.22204 1.22218 1.22225 
1.2221 1.22198 1.22231 2.27924 2.28212 2.28195 2.28258 1.22224 1.22222 
1.22228 1.22227 1.22223 1.2223 1.22224 2.2816 2.28202 2.28134 2.28281 
2.25347 2.26032 2.26095 1.22226 1.2222 1.22226 1.22224 1.22227 1.22234 
2.26695 2.26193 2.26755 2.27453 2.27508 2.27122 2.27184 1.22216 2.21762 
2.21755 2.22425 2.22422 2.22416 2.21805 2.26697 2.27234 2.27204 2.27447 
2.27478 2.26682 2.27157 2.27537 2.24129 2.26181 2.22615 2.18241 2.05423 
2.13887 2.02666 1.89991 1.24469 1.28176 1.31566 1.26444 1.29285 1.36355 
1.46866 1.40025 2.26072 2.26605 2.26638 2.26027 2.21754 2.22415 2.22424 
2.21706 1.79462 1.97648 2.08141 1.93776 2.15916 2.22856 2.17922 2.10806 
1.71284 1.58488 1.74803 1.6199 1.48719 2.19348 2.10312 2.25523 2.24584 
2.24496 2.25531 2.234 1.34548 1.23548 1.22214 1.22215 1.22207 1.22215 
1.86342 2.26438 2.24292 2.26954 2.27737 2.27896 2.27776 2.27418 2.24989 
2.21763 2.25966 2.24938 2.27293 2.28007 2.26934 1.45023 1.57588 1.68575 
1.53171 1.63397 1.81606 2.08372 2.15315 2.04268 1.93752 1.74295 1.87782 
1.99534 2.1214 2.20681 2.15707 2.2281 2.25305 2.20713 2.26732 1.22212 
1.22216 1.38087 1.48948 1.62815 1.53142 1.41327 1.32615 1.41502 1.35278 
1.28762 1.32845 1.38646 1.49525 1.68733 1.81152 1.88208 1.99401 1.22216 
1.22214 1.2222 1.22222 1.22211 1.2223 1.22215 1.2222 1.22228 1.2221 
1.22226 1.22209 1.22226 1.22217 1.22192 1.22226 1.22214 1.22231 1.22219 
1.22209 1.22242 1.22227 1.22215 1.22223 1.22212 1.22227 1.22215 1.22245 
1.22243 1.22246 1.22241 1.22202 1.22202 1.22235 1.22228 1.22216 1.22236 
1.22225 1.22207 1.22215 1.22221 1.22222 1.2223 1.22225 1.22237 1.22217 
1.22215 1.22225 1.22224 1.22215 1.22234 1.22212 1.2223 1.2225 1.2257 
1.22196 1.22352 1.23365 1.25987 1.24121 1.22944 1.22211 1.22195 1.22225 
2.27413 2.27022 2.26089 2.12121 2.04738 2.27284 2.25381 2.2454 1.22228 
1.22211 1.22227 2.27481 2.27446 2.27706 2.27722 2.27712 2.25436 2.245 
2.27887 2.28043 2.28022 2.27882 2.2757 2.28054 2.27748 2.27757 2.26158 
1.22227 1.22232 1.96918 2.28104 2.2815 2.23958 2.26463 2.19715 2.2824 
2.27775 2.27132 2.26729 2.27158 2.26295 1.22197 1.22358 2.25226 2.25289 
1.22219 1.22212 1.22213 1.22217 1.22219 1.22214 1.22207 1.22215 1.22214 
1.22222 1.22221 1.22212 1.22216 1.22219 1.22223 1.22217 1.22217 1.2221 
1.22214 1.22219 1.22217 1.22208 1.22216 1.22213 1.22203 2.22085 2.23151 
2.22724 2.23069 2.23574 2.22322 2.21627 2.21466 2.21375 2.17324 2.12441 
2.20401 2.22601 2.16939 2.06381 2.23715 2.24548 2.23878 2.2375 2.20898 
2.23245 1.22215 1.22202 1.22238 1.22228 1.2221 1.22214 1.22229 1.22231 
1.51555 1.6602 1.54833 1.43032 1.3399 1.40354 1.29338 1.36185 1.46152 
2.13395 2.21425 2.16053 2.05467 1.8969 2.01583 2.27712 2.27936 2.27925 
2.27707 2.2747 2.27484 1.22213 1.22214 1.22215 1.22212 1.22213 1.22212 
2.22408 2.21784 1.23353 1.24911 1.25897 1.24011 1.22537 1.27179 1.30452 
1.22211 1.22222 1.22232 1.22232 1.22224 1.22234 1.22223 1.22232 1.22232 
1.22234 1.22233 1.22229 1.22238 1.22229 2.18537 2.23003 2.08881 1.60375 
1.70772 1.54545 1.78503 1.90665 2.01005 1.82996 1.6411 2.11142 2.17027 
2.06535 1.97772 2.21428 2.13343 1.5814 1.75243 1.45283 1.38572 1.4974 
1.28757 1.35353 1.30696 1.25125 1.27452 1.33191 1.42292 1.24867 1.22847 
1.22231 1.89501 1.77964 1.9838 1.68649 1.59043 1.51174 1.67369 1.88207 
1.39961 1.34658 1.45157 1.52272 1.30477 1.38983 2.25775 1.22221 1.22221 
1.22222 1.22219 1.22221 1.22225 1.22221 1.22221 1.22221 1.22221 1.22226 
1.22223 1.22221 1.22222 1.22219 1.22222 1.22226 1.22216 1.22219 1.22227 
1.22216 1.22224 1.22224 1.22218 1.22224 1.22218 1.22216 1.22219 1.22218 
1.22221 1.22221 1.22221 1.22225 1.22221 1.22212 1.22214 1.22221 1.22231 
1.22237 1.22218 1.22212 1.22241 1.22235 1.22208 1.22206 1.22208 1.22208 
1.22234 1.22242 1.22215 1.22233 1.22229 1.22214 1.22233 1.22226 1.22208 
1.22196 1.22216 1.22215 1.22234 1.22231 1.22233 1.22229 1.22216 1.2222 
1.22208 1.22228 1.22231 1.22198 1.22812 1.22214 1.22209 1.22224 1.22212 
1.22217 1.22217 1.22219 1.22218 1.22213 1.22217 1.22221 1.22222 1.2222 
1.22218 1.22222 1.2222 1.2222 1.2222 1.22222 1.22222 1.22221 1.22211 
1.22216 1.22214 1.22222 1.22232 1.22238 1.22229 1.22227 1.22228 1.22227 
1.22219 1.22216 1.22218 1.22221 1.22224 1.22224 1.22228 1.22222 1.22217 
1.22211 1.22221 1.22213 1.22215 1.22214 1.22214 1.22227 1.22235 1.22219 
1.22239 1.22223 1.22225 1.22211 1.22257 1.22253 1.22211 1.22214 1.22215 
1.22216 1.22217 1.22258 1.22258 1.22226 1.22245 1.22235 1.22225 1.22237 
1.22227 1.22226 1.22234 1.22236 1.22213 1.22218 1.22216 1.22221 1.22213 
1.22216 1.22221 1.22217 1.22223 1.22231 1.2222 1.22224 1.22221 1.22216 
1.22215 1.22214 1.22221 1.22219 1.22218 1.22225 1.22234 1.22235 1.22237 
1.22233 1.22212 1.22206 1.22203 1.87041 2.04174 1.67297 1.57498 1.74877 
1.94938 1.51821 1.4442 1.27295 1.33165 1.3825 1.30354 1.42571 1.49643 
1.72217 1.83915 1.64379 1.55251 1.22399 1.23563 1.22208 1.22678 1.2219 
1.22286 1.22205 1.22491 1.23163 1.22218 1.22221 1.22217 1.22218 1.22218 
1.22219 1.22221 1.22215 1.2222 1.22224 1.22219 1.22225 1.2222 1.22224 
1.22221 1.22215 1.22217 1.2222 1.22221 1.22218 1.22217 1.2222 1.22219 
1.22222 1.22224 1.22213 1.22225 1.22219 1.22217 1.22219 1.22241 1.22227 
1.22213 1.22221 1.22209 1.22207 1.2223 1.22214 1.47488 1.34915 1.26877 
1.25662 1.30114 1.24476 1.22292 1.22735 1.2347 1.22221 1.22218 1.22217 
1.22218 1.22224 1.2222 1.22227 1.22225 1.22217 1.22224 1.22227 1.22221 
1.22228 1.22226 1.22225 1.2222 1.22221 1.22218 1.22218 1.22223 1.22219 
1.22221 1.22217 1.22215 1.22211 1.2223 1.22241 1.22206 1.22227 1.6588 
1.56813 1.75595 1.86622 1.9543 2.0474 1.22229 1.22225 1.22218 1.2223 
1.22216 1.22232 1.22219 1.2222 1.22227 1.22221 1.22227 1.22222 1.22227 
1.2222 1.22223 1.22215 1.22221 2.18024 2.131 2.08068 2.00453 1.90851 
2.07058 1.62186 1.81426 1.92619 1.53588 1.70203 1.60454 1.46362 1.79501 
1.99267 1.4784 1.36818 1.32086 1.41107 1.25096 1.29405 1.23577 1.26611 
1.22276 1.23281 1.24628 1.2269 1.26054 1.2863 1.35632 1.31216 1.2396 
1.22887 1.22214 1.22178 1.22362 1.22199 1.2222 1.22215 1.22212 1.22217 
1.222 1.22183 1.22177 1.36983 1.3004 1.2742 1.33004 1.25668 1.2417 
1.22869 1.24709 1.2837 1.22423 1.22213 1.22667 1.23368 1.22205 1.22245 
1.22217 1.22208 1.22208 1.22226 1.2216 1.22353 1.23543 1.25464 1.23247 
1.22384 1.22209 1.22203 1.22217 1.22226 1.22222 1.22235 1.2222 1.2222 
1.22221 1.22223 1.22223 1.22219 1.22222 1.22221 1.22224 1.22221 1.22225 
1.2222 1.2221 1.2223 1.22249 1.22278 1.2216 1.22232 1.2224 1.22162 
1.22222 1.2227 1.22219 1.22182 1.22187 1.22178 1.22211 1.22202 1.22206 
1.22221 1.22221 1.22167 1.22208 1.22221 1.2214 1.22221 1.22194 1.22191 
1.22221 1.22207 1.22206 1.22226 1.22212 1.22226 1.22219 1.22219 1.2221 
1.22219 1.22216 1.22218 1.22221 1.22221 1.22209 1.22225 1.22221 1.22206 
1.22217 1.22221 1.22216 1.22222 1.22222 1.22223 1.22225 1.22217 1.22219 
1.22221 1.22216 1.22221 1.22222 1.22215 1.22221 1.22222 1.22225 1.22221 
1.2222 1.22235 1.22232 1.22236 1.22223 1.22226 1.22235 1.22223 1.22231 
1.22465 1.22325 1.22114 1.22043 1.22244 1.22193 1.22247 1.22311 1.22361 
2.20118 2.23397 2.24694 2.25982 2.26628 2.25422 2.25711 2.25543 2.26355 
2.26086 2.25411 2.26328 2.18881 2.2434 2.09227 1.94856 1.22216 1.2222 
1.22217 1.22222 1.22217 1.22219 1.22218 1.22218 1.22221 1.22218 1.22219 
1.22223 1.2222 1.22214 1.2222 1.22216 1.22218 1.2222 1.22224 1.22232 
1.22214 1.22229 1.22217 1.22227 1.222 1.22229 1.22231 1.22211 1.22206 
1.22213 1.22217 1.22232 1.22235 1.22219 1.2223 1.2223 1.22229 2.23491 
2.21639 2.20266 2.17075 2.23464 2.2281 1.22236 1.22249 1.22226 1.22224 
1.22221 1.22221 1.22212 1.22217 1.22221 1.22218 1.22221 1.22221 1.22228 
1.22221 1.22227 1.22224 1.22261 1.2226 1.2222 1.22219 1.22221 1.22221 
1.22261 1.22263 1.22221 1.22248 1.22236 1.22221 2.12079 2.05981 1.97337 
1.7628 2.11989 2.3075 2.25848 2.22146 2.17752 1.22221 1.2223 1.2223 
1.22216 1.22217 1.22214 1.2221 1.22211 1.22232 1.22234 1.2515 1.29844 
1.33791 1.27388 1.3809 1.44044 1.57882 1.50182 1.2797 1.24236 1.23036 
1.2557 1.22168 1.22536 1.2218 1.22216 1.2218 1.22161 1.22206 1.22186 
1.22415 1.2389 1.2284 2.22395 2.21597 2.23406 2.2345 2.22349 2.21596 
2.2542 2.24615 2.24538 2.2451 2.24453 2.23331 2.23434 2.21525 2.21607 
2.22294 2.22287 2.26137 2.26191 2.26793 2.26841 2.26548 2.27077 1.22178 
1.22194 1.22233 1.22569 1.22208 1.22193 1.22385 1.23058 1.24391 1.22223 
1.22218 1.22224 1.22225 1.22224 1.22221 1.41343 1.46982 1.34522 1.43624 
1.52892 1.61037 1.2614 1.29541 1.30677 1.36347 1.46148 1.38188 1.5565 
1.22219 1.22218 1.22216 1.22216 1.22222 1.22222 1.22178 1.22187 1.22189 
1.22195 1.22209 1.22208 1.31515 1.41075 1.27482 1.34489 1.46036 1.55973 
1.22205 1.22211 1.22215 1.22212 1.22212 1.2221 1.22211 1.22218 1.22212 
1.22214 1.22212 1.22214 1.22213 1.22221 1.22192 1.22186 1.22215 1.94699 
1.75518 1.22221 1.22224 1.22222 1.2223 1.22217 1.22218 1.22215 1.22215 
1.22213 1.22242 1.22213 1.22236 1.2221 1.22215 1.2222 1.22214 1.22221 
1.2222 1.2222 1.22217 1.22226 1.22221 1.22231 1.22237 1.7062 2.19326 
1.57949 2.04724 1.22224 1.22228 1.22215 1.22226 1.22213 1.24805 1.28983 
1.24468 1.37335 1.82469 1.44941 1.22218 1.22193 1.22197 1.22608 1.23774 
1.22193 1.22186 1.22185 1.2219 1.22194 1.22179 1.22202 1.22202 1.22189 
1.22184 1.22196 1.22286 1.22177 1.2269 1.2218 1.7912 1.68253 1.23341 
1.26473 1.29392 1.24772 1.32698 1.2884 1.37439 1.22336 1.23597 1.22165 
1.22198 1.26905 1.33132 1.22219 1.22209 1.22208 1.22214 1.222 1.2218 
1.22214 1.22216 1.2222 1.22216 1.22231 1.22232 1.22224 1.22223 1.22229 
1.22241 1.22234 1.22233 1.22236 1.22239 1.22226 1.22217 1.22226 1.22221 
1.22224 1.22236 1.22234 1.22232 1.2224 1.22224 1.22233 1.2223 1.22236 
1.2222 1.2222 1.43164 1.22218 1.22212 1.22238 1.22224 1.22225 1.2223 
1.22241 1.22236 1.22233 1.22203 1.22208 1.22201 1.22208 1.22236 1.22238 
1.22221 1.22239 1.22235 1.22227 1.25825 1.22225 1.22225 1.22235 1.22231 
1.22223 1.22236 1.2222 1.22211 1.22228 1.22221 1.22228 1.22221 1.22225 
1.22235 1.22226 1.22218 1.22231 1.22219 1.22221 1.22223 1.22213 1.22217 
1.22225 1.22228 1.22232 1.22236 1.22222 1.22239 1.22238 1.22237 1.22237 
1.22219 1.22229 1.22228 1.22243 1.22241 1.22204 1.22209 1.22247 1.22251 
1.22236 1.22241 1.22237 1.22274 1.22322 1.22131 1.22171 1.22248 1.22195 
1.22247 1.22313 1.22237 1.22211 1.22193 1.22223 1.22219 1.22218 1.22204 
1.22185 1.22227 1.22134 1.22231 1.22221 1.22224 1.22224 1.22217 1.22224 
1.22216 1.2222 1.22217 1.22228 1.2223 1.22228 1.22212 1.22218 1.22234 
1.2221 1.22232 1.22227 1.22232 1.22199 1.22176 1.22217 1.22217 1.22216 
1.22224 1.22213 1.22224 1.22221 1.22221 1.22221 1.22216 1.22212 1.2222 
1.22218 1.22212 1.22222 1.22218 1.22222 1.22232 1.22232 1.22234 1.22216 
1.22222 1.22214 1.22224 1.22216 1.22209 1.22226 1.2221 1.22216 1.22226 
1.22226 1.2222 1.22218 1.22221 1.22221 1.22222 1.22223 1.22223 1.22222 
1.22219 1.22223 1.22221 1.22218 1.22222 1.22219 1.22225 1.22219 1.22221 
1.22224 1.22223 1.22221 1.22222 1.22221 1.22215 1.22216 1.22224 2.27143 
2.27065 1.22225 1.22237 1.22219 1.22227 1.22219 1.22234 1.22214 1.22199 
1.2213 1.22113 1.22197 1.22193 1.2218 1.22216 1.222 1.22185 1.22195 
1.22201 1.22181 1.22183 1.22218 1.22214 1.22218 1.22216 1.22216 1.22216 
1.2222 1.2222 1.25677 1.22201 1.22221 1.2257 1.22243 1.22193 1.22195 
1.22224 1.22224 1.22235 1.22212 1.22199 1.22237 1.22227 1.22246 1.22213 
1.22236 1.22225 1.22223 1.22221 1.22224 1.22226 1.22216 1.22222 1.22228 
1.22215 1.22216 1.22229 1.22221 1.2222 1.22216 1.22217 1.2222 1.22222 
1.22218 1.2222 1.2222 1.2222 1.22222 1.22216 1.2222 1.22218 1.22223 
1.2222 1.22222 1.2222 2.10296 2.34443 2.25207 2.25223 2.2429 2.2425 
2.24324 2.23278 2.23249 2.23243 2.24321 2.23306 2.21807 2.22416 2.21797 
2.22428 2.25932 2.25956 2.26557 2.26615 2.27396 2.27418 2.2706 2.27046 
2.24839 2.24651 2.23588 2.23406 2.24858 2.2541 2.21273 2.2116 2.22165 
2.22167 2.21319 2.22132 2.25718 2.24692 2.2329 1.22213 1.58726 1.70473 
1.32156 1.27054 1.24583 1.28091 1.24039 1.22757 1.22307 1.23089 1.25299 
2.22136 2.21566 2.22217 2.21445 1.84505 2.25353 2.22472 2.18991 2.23954 
2.15435 2.09454 2.02063 2.14115 2.21608 2.21822 2.2241 2.22416 2.21813 
1.22224 1.22221 1.22228 1.22229 1.22221 1.22227 1.22216 1.22221 1.22219 
1.22211 1.22516 1.22213 1.22234 1.22185 1.21836 1.22079 1.22223 1.2222 
1.22227 1.2222 1.22215 1.22224 1.22221 1.22208 1.22221 1.22221 1.22225 
1.22221 2.27209 2.26699 2.2623 2.27685 2.2771 2.27884 2.27896 2.28054 
2.28026 2.28047 2.28005 
