# vtk DataFile Version 3.0
vtk output
ASCII
DATASET UNSTRUCTURED_GRID
FIELD FieldData 1
avtOriginalBounds 1 6 double
-0.75 0.75 -0.5 0.5 0 0 
POINTS 63 double
0.75 -0.232051 0 0.75 -0.110042 0 0.552083 -0.154701 0 
0.55 -0.285641 0 0.75 0.011966 0 0.554167 -0.0237605 0 
0.75 0.133974 0 0.55625 0.10718 0 0.75 0.255983 0 
0.558333 0.23812 0 0.75 0.377992 0 0.560417 0.36906 0 
0.75 0.5 0 0.5625 0.5 0 0.354167 -0.199359 0 
0.35 -0.339231 0 0.358333 -0.0594871 0 0.3625 0.0803847 0 
0.366667 0.220256 0 0.370833 0.360128 0 0.375 0.5 0 
0.15625 -0.244017 0 0.15 -0.39282 0 0.1625 -0.0952136 0 
0.16875 0.0535898 0 0.175 0.202393 0 0.18125 0.351197 0 
0.1875 0.5 0 -0.0416667 -0.288675 0 -0.05 -0.44641 0 
-0.0333333 -0.13094 0 -0.025 0.0267949 0 -0.0166667 0.18453 0 
-0.00833333 0.342265 0 0 0.5 0 -0.239583 -0.333333 0 
-0.25 -0.5 0 -0.229167 -0.166667 0 -0.21875 6.05576e-18 0 
-0.208333 0.166667 0 -0.197917 0.333333 0 -0.1875 0.5 0 
-0.409722 -0.333333 0 -0.416667 -0.5 0 -0.402778 -0.166667 0 
-0.395833 6.05576e-18 0 -0.388889 0.166667 0 -0.381944 0.333333 0 
-0.375 0.5 0 -0.579861 -0.333333 0 -0.583333 -0.5 0 
-0.576389 -0.166667 0 -0.572917 6.05576e-18 0 -0.569444 0.166667 0 
-0.565972 0.333333 0 -0.5625 0.5 0 -0.75 -0.333333 0 
-0.75 -0.5 0 -0.75 -0.166667 0 -0.75 0 0 
-0.75 0.166667 0 -0.75 0.333333 0 -0.75 0.5 0 

CELLS 48 240
4 0 1 2 3 
4 1 4 5 2 
4 4 6 7 5 
4 6 8 9 7 
4 8 10 11 9 
4 10 12 13 11 
4 3 2 14 15 
4 2 5 16 14 
4 5 7 17 16 
4 7 9 18 17 
4 9 11 19 18 
4 11 13 20 19 
4 15 14 21 22 
4 14 16 23 21 
4 16 17 24 23 
4 17 18 25 24 
4 18 19 26 25 
4 19 20 27 26 
4 22 21 28 29 
4 21 23 30 28 
4 23 24 31 30 
4 24 25 32 31 
4 25 26 33 32 
4 26 27 34 33 
4 29 28 35 36 
4 28 30 37 35 
4 30 31 38 37 
4 31 32 39 38 
4 32 33 40 39 
4 33 34 41 40 
4 36 35 42 43 
4 35 37 44 42 
4 37 38 45 44 
4 38 39 46 45 
4 39 40 47 46 
4 40 41 48 47 
4 43 42 49 50 
4 42 44 51 49 
4 44 45 52 51 
4 45 46 53 52 
4 46 47 54 53 
4 47 48 55 54 
4 50 49 56 57 
4 49 51 58 56 
4 51 52 59 58 
4 52 53 60 59 
4 53 54 61 60 
4 54 55 62 61 

CELL_TYPES 48
9
9
9
9
9
9
9
9
9
9
9
9
9
9
9
9
9
9
9
9
9
9
9
9
9
9
9
9
9
9
9
9
9
9
9
9
9
9
9
9
9
9
9
9
9
9
9
9

POINT_DATA 63
SCALARS density_aux double
LOOKUP_TABLE default
2.36175 2.12107 2.01934 2.36711 1.99046 1.88114 1.83939 1.72363 1.69527 
1.58947 1.6372 1.52815 1.72858 1.57085 1.87311 2.30146 1.73125 1.57413 
1.45534 1.39641 1.39842 1.70881 2.15563 1.5815 1.44833 1.35388 1.30286 
1.29162 1.53982 1.91461 1.44401 1.34728 1.28344 1.24988 1.23715 1.3864 
1.49042 1.3331 1.27364 1.24235 1.22745 1.22131 1.27695 1.25712 1.25534 
1.23205 1.22466 1.2217 1.22242 1.23053 1.23794 1.22602 1.22261 1.22154 
1.22238 1.22262 1.22221 1.22221 1.22221 1.22221 1.22221 1.22221 1.22221 

FIELD FieldData 1
exact_rho_aux 1 63 double
2.28132 2.28132 2.28132 2.28132 2.28132 2.28132 2.28132 1.22221 1.22221 
1.22221 1.22221 1.22221 1.22221 1.22221 2.28132 2.28132 2.28132 1.22221 
1.22221 1.22221 1.22221 2.28132 2.28132 1.22221 1.22221 1.22221 1.22221 
1.22221 1.22221 2.28132 1.22221 1.22221 1.22221 1.22221 1.22221 1.22221 
2.28132 1.22221 1.22221 1.22221 1.22221 1.22221 1.22221 1.22221 1.22221 
1.22221 1.22221 1.22221 1.22221 1.22221 1.22221 1.22221 1.22221 1.22221 
1.22221 1.22221 1.22221 1.22221 1.22221 1.22221 1.22221 1.22221 1.22221 

