# vtk DataFile Version 3.0
vtk output
ASCII
DATASET UNSTRUCTURED_GRID
FIELD FieldData 1
avtOriginalBounds 1 6 double
-0.75 0.75 -0.5 0.5 0 0 
POINTS 49601 double
0.75 -0.232051 0 0.75 -0.110042 0 0.552083 -0.154701 0 
0.55 -0.285641 0 0.75 0.011966 0 0.554167 -0.0237605 0 
0.75 0.133974 0 0.55625 0.10718 0 0.75 0.255983 0 
0.558333 0.23812 0 0.75 0.377992 0 0.560417 0.36906 0 
0.75 0.5 0 0.5625 0.5 0 0.354167 -0.199359 0 
0.35 -0.339231 0 0.358333 -0.0594871 0 0.3625 0.0803847 0 
0.366667 0.220256 0 0.370833 0.360128 0 0.375 0.5 0 
0.15625 -0.244017 0 0.15 -0.39282 0 0.1625 -0.0952136 0 
0.16875 0.0535898 0 0.175 0.202393 0 0.18125 0.351197 0 
0.1875 0.5 0 -0.0416667 -0.288675 0 -0.05 -0.44641 0 
-0.0333333 -0.13094 0 -0.025 0.0267949 0 -0.0166667 0.18453 0 
-0.00833333 0.342265 0 0 0.5 0 -0.239583 -0.333333 0 
-0.25 -0.5 0 -0.229167 -0.166667 0 -0.21875 6.05576e-18 0 
-0.208333 0.166667 0 -0.197917 0.333333 0 -0.1875 0.5 0 
-0.409722 -0.333333 0 -0.416667 -0.5 0 -0.402778 -0.166667 0 
-0.395833 6.05576e-18 0 -0.388889 0.166667 0 -0.381944 0.333333 0 
-0.375 0.5 0 -0.579861 -0.333333 0 -0.583333 -0.5 0 
-0.576389 -0.166667 0 -0.572917 6.05576e-18 0 -0.569444 0.166667 0 
-0.565972 0.333333 0 -0.5625 0.5 0 -0.75 -0.333333 0 
-0.75 -0.5 0 -0.75 -0.166667 0 -0.75 0 0 
-0.75 0.166667 0 -0.75 0.333333 0 -0.75 0.5 0 
0.75 -0.171047 0 0.650521 -0.195609 0 0.65 -0.258846 0 
0.651042 -0.132372 0 0.551042 -0.220171 0 0.75 -0.0490382 0 
0.651563 -0.0691344 0 0.652083 -0.00589727 0 0.553125 -0.0892306 0 
0.75 0.0729703 0 0.652604 0.0573399 0 0.653125 0.120577 0 
0.555208 0.0417095 0 0.75 0.194979 0 0.653646 0.183814 0 
0.654167 0.247051 0 0.557292 0.17265 0 0.75 0.316987 0 
0.654687 0.310289 0 0.655208 0.373526 0 0.559375 0.30359 0 
0.75 0.438996 0 0.655729 0.436763 0 0.65625 0.5 0 
0.561458 0.43453 0 0.451562 -0.244733 0 0.45 -0.312436 0 
0.453125 -0.17703 0 0.352083 -0.269295 0 0.454688 -0.109327 0 
0.45625 -0.0416238 0 0.35625 -0.129423 0 0.457812 0.0260792 0 
0.459375 0.0937821 0 0.360417 0.0104488 0 0.460937 0.161485 0 
0.4625 0.229188 0 0.364583 0.150321 0 0.464062 0.296891 0 
0.465625 0.364594 0 0.36875 0.290192 0 0.467187 0.432297 0 
0.46875 0.5 0 0.372917 0.430064 0 0.252604 -0.293857 0 
0.25 -0.366026 0 0.255208 -0.221688 0 0.153125 -0.318419 0 
0.257812 -0.149519 0 0.260417 -0.0773503 0 0.159375 -0.169615 0 
0.263021 -0.00518154 0 0.265625 0.0669872 0 0.165625 -0.0208119 0 
0.268229 0.139156 0 0.270833 0.211325 0 0.171875 0.127992 0 
0.273437 0.283494 0 0.276042 0.355662 0 0.178125 0.276795 0 
0.278646 0.427831 0 0.28125 0.5 0 0.184375 0.425598 0 
0.0536458 -0.342981 0 0.05 -0.419615 0 0.0572917 -0.266346 0 
-0.0458333 -0.367543 0 0.0609375 -0.189711 0 0.0645833 -0.113077 0 
-0.0375 -0.209808 0 0.0682292 -0.0364423 0 0.071875 0.0401924 0 
-0.0291667 -0.0520726 0 0.0755208 0.116827 0 0.0791667 0.193462 0 
-0.0208333 0.105662 0 0.0828125 0.270096 0 0.0864583 0.346731 0 
-0.0125 0.263397 0 0.0901042 0.423365 0 0.09375 0.5 0 
-0.00416667 0.421132 0 -0.145313 -0.392105 0 -0.15 -0.473205 0 
-0.140625 -0.311004 0 -0.244792 -0.416667 0 -0.135937 -0.229904 0 
-0.13125 -0.148803 0 -0.234375 -0.25 0 -0.126562 -0.067703 0 
-0.121875 0.0133975 0 -0.223958 -0.0833333 0 -0.117187 0.0944979 0 
-0.1125 0.175598 0 -0.213542 0.0833333 0 -0.107812 0.256699 0 
-0.103125 0.337799 0 -0.203125 0.25 0 -0.0984375 0.4189 0 
-0.09375 0.5 0 -0.192708 0.416667 0 -0.328993 -0.416667 0 
-0.333333 -0.5 0 -0.324653 -0.333333 0 -0.413194 -0.416667 0 
-0.320312 -0.25 0 -0.315972 -0.166667 0 -0.40625 -0.25 0 
-0.311632 -0.0833333 0 -0.307292 6.05576e-18 0 -0.399306 -0.0833333 0 
-0.302951 0.0833333 0 -0.298611 0.166667 0 -0.392361 0.0833333 0 
-0.294271 0.25 0 -0.289931 0.333333 0 -0.385417 0.25 0 
-0.28559 0.416667 0 -0.28125 0.5 0 -0.378472 0.416667 0 
-0.497396 -0.416667 0 -0.5 -0.5 0 -0.494792 -0.333333 0 
-0.581597 -0.416667 0 -0.492188 -0.25 0 -0.489583 -0.166667 0 
-0.578125 -0.25 0 -0.486979 -0.0833333 0 -0.484375 6.05576e-18 0 
-0.574653 -0.0833333 0 -0.481771 0.0833333 0 -0.479167 0.166667 0 
-0.571181 0.0833333 0 -0.476562 0.25 0 -0.473958 0.333333 0 
-0.567708 0.25 0 -0.471354 0.416667 0 -0.46875 0.5 0 
-0.564236 0.416667 0 -0.665799 -0.416667 0 -0.666667 -0.5 0 
-0.664931 -0.333333 0 -0.75 -0.416667 0 -0.664062 -0.25 0 
-0.663194 -0.166667 0 -0.75 -0.25 0 -0.662326 -0.0833333 0 
-0.661458 3.02788e-18 0 -0.75 -0.0833333 0 -0.66059 0.0833333 0 
-0.659722 0.166667 0 -0.75 0.0833333 0 -0.658854 0.25 0 
-0.657986 0.333333 0 -0.75 0.25 0 -0.657118 0.416667 0 
-0.65625 0.5 0 -0.75 0.416667 0 0.75 -0.201549 0 
0.70013 -0.214388 0 0.7 -0.245448 0 0.70026 -0.183328 0 
0.65026 -0.227227 0 0.75 -0.140545 0 0.700391 -0.152267 0 
0.700521 -0.121207 0 0.650781 -0.16399 0 0.600391 -0.240067 0 
0.6 -0.272243 0 0.600781 -0.20789 0 0.550521 -0.252906 0 
0.601172 -0.175713 0 0.601562 -0.143536 0 0.551562 -0.187436 0 
0.75 -0.0795404 0 0.700651 -0.0901467 0 0.700781 -0.0590863 0 
0.651302 -0.100753 0 0.75 -0.0185361 0 0.700911 -0.028026 0 
0.701042 0.00303437 0 0.651823 -0.0375158 0 0.601953 -0.111359 0 
0.602344 -0.0791825 0 0.552604 -0.121966 0 0.602734 -0.0470057 0 
0.603125 -0.0148289 0 0.553646 -0.0564956 0 0.75 0.0424681 0 
0.701172 0.0340947 0 0.701302 0.0651551 0 0.652344 0.0257213 0 
0.75 0.103472 0 0.701432 0.0962154 0 0.701562 0.127276 0 
0.652865 0.0889585 0 0.603516 0.0173479 0 0.603906 0.0495247 0 
0.554688 0.0089745 0 0.604297 0.0817015 0 0.604687 0.113878 0 
0.555729 0.0744446 0 0.75 0.164477 0 0.701693 0.158336 0 
0.701823 0.189396 0 0.653385 0.152196 0 0.75 0.225481 0 
0.701953 0.220457 0 0.702083 0.251517 0 0.653906 0.215433 0 
0.605078 0.146055 0 0.605469 0.178232 0 0.556771 0.139915 0 
0.605859 0.210409 0 0.60625 0.242586 0 0.557812 0.205385 0 
0.75 0.286485 0 0.702214 0.282578 0 0.702344 0.313638 0 
0.654427 0.27867 0 0.75 0.347489 0 0.702474 0.344698 0 
0.702604 0.375759 0 0.654948 0.341907 0 0.606641 0.274762 0 
0.607031 0.306939 0 0.558854 0.270855 0 0.607422 0.339116 0 
0.607813 0.371293 0 0.559896 0.336325 0 0.75 0.408494 0 
0.702734 0.406819 0 0.702865 0.437879 0 0.655469 0.405144 0 
0.75 0.469498 0 0.702995 0.46894 0 0.703125 0.5 0 
0.65599 0.468381 0 0.608203 0.40347 0 0.608594 0.435646 0 
0.560938 0.401795 0 0.608984 0.467823 0 0.609375 0.5 0 
0.561979 0.467265 0 0.500651 -0.265745 0 0.5 -0.299038 0 
0.501302 -0.232452 0 0.450781 -0.278584 0 0.501953 -0.199158 0 
0.502604 -0.165865 0 0.452344 -0.210881 0 0.400911 -0.291423 0 
0.4 -0.325833 0 0.401823 -0.257014 0 0.351042 -0.304263 0 
0.402734 -0.222604 0 0.403646 -0.188194 0 0.353125 -0.234327 0 
0.503255 -0.132572 0 0.503906 -0.0992787 0 0.453906 -0.143178 0 
0.504557 -0.0659854 0 0.505208 -0.0326922 0 0.455469 -0.0754753 0 
0.404557 -0.153785 0 0.405469 -0.119375 0 0.355208 -0.164391 0 
0.40638 -0.0849651 0 0.407292 -0.0505554 0 0.357292 -0.094455 0 
0.505859 0.000601094 0 0.50651 0.0338944 0 0.457031 -0.00777231 0 
0.507161 0.0671876 0 0.507812 0.100481 0 0.458594 0.0599307 0 
0.408203 -0.0161457 0 0.409115 0.018264 0 0.359375 -0.0245191 0 
0.410026 0.0526737 0 0.410937 0.0870834 0 0.361458 0.0454168 0 
0.508464 0.133774 0 0.509115 0.167067 0 0.460156 0.127634 0 
0.509766 0.200361 0 0.510417 0.233654 0 0.461719 0.195337 0 
0.411849 0.121493 0 0.41276 0.155903 0 0.363542 0.115353 0 
0.413672 0.190313 0 0.414583 0.224722 0 0.365625 0.185289 0 
0.511068 0.266947 0 0.511719 0.30024 0 0.463281 0.26304 0 
0.51237 0.333534 0 0.513021 0.366827 0 0.464844 0.330743 0 
0.415495 0.259132 0 0.416406 0.293542 0 0.367708 0.255224 0 
0.417318 0.327951 0 0.418229 0.362361 0 0.369792 0.32516 0 
0.513672 0.40012 0 0.514323 0.433413 0 0.466406 0.398446 0 
0.514974 0.466707 0 0.515625 0.5 0 0.467969 0.466149 0 
0.419141 0.396771 0 0.420052 0.431181 0 0.371875 0.395096 0 
0.420964 0.46559 0 0.421875 0.5 0 0.373958 0.465032 0 
0.301172 -0.317102 0 0.3 -0.352628 0 0.302344 -0.281576 0 
0.251302 -0.329941 0 0.303516 -0.24605 0 0.304687 -0.210523 0 
0.253906 -0.257772 0 0.201432 -0.34278 0 0.2 -0.379423 0 
0.202865 -0.306138 0 0.151562 -0.35562 0 0.204297 -0.269495 0 
0.205729 -0.232852 0 0.154687 -0.281218 0 0.305859 -0.174997 0 
0.307031 -0.139471 0 0.25651 -0.185604 0 0.308203 -0.103945 0 
0.309375 -0.0684187 0 0.259115 -0.113435 0 0.207161 -0.19621 0 
0.208594 -0.159567 0 0.157812 -0.206816 0 0.210026 -0.122925 0 
0.211458 -0.086282 0 0.160937 -0.132414 0 0.310547 -0.0328925 0 
0.311719 0.00263364 0 0.261719 -0.0412659 0 0.312891 0.0381598 0 
0.314062 0.073686 0 0.264323 0.0309029 0 0.212891 -0.0496393 0 
0.214323 -0.0129967 0 0.164062 -0.0580127 0 0.215755 0.0236459 0 
0.217187 0.0602885 0 0.167187 0.016389 0 0.315234 0.109212 0 
0.316406 0.144738 0 0.266927 0.103072 0 0.317578 0.180264 0 
0.31875 0.215791 0 0.269531 0.17524 0 0.21862 0.0969311 0 
0.220052 0.133574 0 0.170312 0.0907907 0 0.221484 0.170216 0 
0.222917 0.206859 0 0.173438 0.165192 0 0.319922 0.251317 0 
0.321094 0.286843 0 0.272135 0.247409 0 0.322266 0.322369 0 
0.323437 0.357895 0 0.27474 0.319578 0 0.224349 0.243502 0 
0.225781 0.280144 0 0.176563 0.239594 0 0.227214 0.316787 0 
0.228646 0.35343 0 0.179688 0.313996 0 0.324609 0.393421 0 
0.325781 0.428948 0 0.277344 0.391747 0 0.326953 0.464474 0 
0.328125 0.5 0 0.279948 0.463916 0 0.230078 0.390072 0 
0.23151 0.426715 0 0.182813 0.388397 0 0.232943 0.463357 0 
0.234375 0.5 0 0.185938 0.462799 0 0.101693 -0.368459 0 
0.1 -0.406218 0 0.103385 -0.3307 0 0.0518229 -0.381298 0 
0.105078 -0.292941 0 0.106771 -0.255182 0 0.0554687 -0.304663 0 
0.00195312 -0.394137 0 -2.08167e-17 -0.433013 0 0.00390625 -0.355262 0 
-0.0479167 -0.406976 0 0.00585937 -0.316386 0 0.0078125 -0.277511 0 
-0.04375 -0.328109 0 0.108464 -0.217422 0 0.110156 -0.179663 0 
0.0591146 -0.228029 0 0.111849 -0.141904 0 0.113542 -0.104145 0 
0.0627604 -0.151394 0 0.00976562 -0.238635 0 0.0117187 -0.19976 0 
-0.0395833 -0.249241 0 0.0136719 -0.160884 0 0.015625 -0.122008 0 
-0.0354167 -0.170374 0 0.115234 -0.0663862 0 0.116927 -0.0286271 0 
0.0664062 -0.0747596 0 0.11862 0.009132 0 0.120312 0.0468911 0 
[...]
POINT_DATA 49601
SCALARS mach_number_aux double
LOOKUP_TABLE default
1.85446 1.87393 1.87383 1.85458 1.87393 1.87387 1.87377 2.10588 2.22863 
2.49993 2.49999 2.5 2.49999 2.50001 1.87385 1.85491 1.88524 2.5001 
2.49998 2.5 2.50002 1.87375 1.85575 2.49999 2.50005 2.5 2.49999 
2.50001 2.50001 1.85768 2.50004 2.49998 2.50001 2.50001 2.50002 2.49998 
2.25657 2.50004 2.49999 2.50001 2.49999 2.5 2.49999 2.50017 2.49999 
2.50001 2.50001 2.50007 2.49996 2.50004 2.50005 2.49999 2.5 2.50001 
2.5 2.50001 2.5 2.5 2.5 2.5 2.5 2.5 2.5 
1.87215 1.87242 1.85453 1.87394 1.87263 1.87402 1.87393 1.87389 1.87383 
1.8739 1.87382 1.87392 1.87386 1.87394 2.19557 2.49998 2.50006 2.5 
2.5 2.50001 2.5 2.5 2.5 2.5 2.5 1.87282 1.85469 
1.8739 1.87296 1.87376 1.87405 1.87416 1.96155 2.50001 2.50002 2.49999 
2.49994 2.49998 2.49996 2.49999 2.50003 2.5 2.50001 2.5 1.87316 
1.85523 1.87389 1.8733 1.87391 2.49999 2.46594 2.50002 2.49998 2.50001 
2.49999 2.49998 2.50001 2.50015 2.5 2.50012 2.5 2.49998 2.5 
1.87335 1.85659 2.14662 1.87931 2.49997 2.49999 2.49996 2.50004 2.5 
2.49996 2.5 2.50002 2.49999 2.50005 2.49995 2.50001 2.5 2.5 
2.49999 2.49118 1.86103 2.5 2.50001 2.50001 2.5 2.49996 2.50001 
2.49998 2.49998 2.50002 2.50001 2.5 2.5 2.49999 2.50001 2.49999 
2.49998 2.49996 2.49997 2.5 2.5 2.50002 2.50004 2.49997 2.50004 
2.49998 2.49999 2.49998 2.5 2.49999 2.50002 2.49998 2.50008 2.49999 
2.50001 2.49999 2.5 2.49998 2.50011 2.49999 2.49997 2.49997 2.50004 
2.50002 2.49998 2.49999 2.49997 2.5 2.5 2.50001 2.5 2.50003 
2.49998 2.5 2.49991 2.49999 2.49993 2.49997 2.49999 2.5 2.49998 
2.49996 2.5 2.49999 2.5 2.5 2.50001 2.5 2.5 2.49998 
2.50001 2.5 2.49996 2.5 2.5 1.86116 1.86153 1.85449 1.87231 
1.8619 1.87377 1.87383 1.87393 1.87385 1.8623 1.85454 1.8725 1.86265 
1.87384 1.87384 1.87387 1.87386 1.87384 1.87409 1.87392 1.87394 1.87391 
1.87382 1.874 1.87397 1.87384 1.87389 1.87399 1.87385 1.87405 1.87388 
1.87388 1.87391 1.87378 1.87386 1.87375 1.87382 1.87387 1.87388 1.8738 
1.87384 1.87391 1.874 1.87387 1.8738 1.87378 1.87368 1.87378 1.87362 
2.20409 2.49999 2.49998 2.16249 2.50009 2.50024 2.49998 2.49999 2.49996 
2.49999 2.4999 2.5 2.50002 2.50001 2.5 2.5 2.5 2.50022 
2.5 2.50026 2.50001 2.50001 2.5 2.5 2.5 2.5 2.5 
2.5 2.5 2.5 2.50001 2.5 2.5 2.5 2.5 2.5 
2.50001 1.86303 1.8547 1.87269 1.8634 1.87387 1.87388 1.87388 1.86378 
1.85479 1.87289 1.86414 1.87389 1.87396 1.87392 1.87392 1.87387 1.87389 
1.87403 1.87383 1.87412 1.874 1.87397 1.87374 1.87395 1.87408 1.87402 
1.87395 1.87388 1.87393 2.02903 2.49976 2.49382 1.91382 2.47398 2.42419 
2.50004 2.50008 2.50003 2.50009 2.5 2.50005 2.49996 2.49995 2.50001 
2.50001 2.50004 2.49995 2.49999 2.49994 2.5 2.50023 2.50001 2.50018 
2.49999 2.5 2.49999 2.50012 2.49992 2.50005 2.49999 2.49999 2.49999 
2.5 2.50001 2.5 2.5 2.49999 2.5 2.5 2.50001 2.5 
2.5 2.49999 2.5 1.86446 1.85505 1.87301 1.86483 1.87392 1.8739 
1.87388 1.86512 1.85549 1.87314 1.86561 1.87397 1.87398 1.87385 1.87366 
1.8734 1.87421 1.87512 2.32469 2.16865 1.87322 1.99367 1.90233 2.49799 
2.49998 2.49997 2.49992 2.49995 2.49996 2.50005 2.50001 2.50008 2.5001 
2.50007 2.49999 2.50006 2.50002 2.50001 2.49999 2.49995 2.50002 2.50001 
2.49997 2.5 2.5 2.50001 2.49998 2.50001 2.5 2.50001 2.50002 
2.50014 2.5 2.49999 2.5 2.49998 2.49997 2.50014 2.49998 2.49998 
2.49999 2.49995 2.5 2.5 2.5 2.5 2.50001 2.5 2.5 
2.5 2.5 2.5 2.50002 2.5 1.86579 1.8561 1.87323 1.86601 
1.87401 1.87559 1.8741 1.86644 1.85702 1.87344 1.86688 1.94199 2.49172 
2.39262 2.35518 2.49992 2.50008 2.50001 2.50002 2.49997 2.49997 2.49999 
2.49999 2.50001 2.49997 2.49997 2.49992 2.50002 2.50008 2.49996 2.50001 
2.49999 2.5001 2.50003 2.50001 2.50001 2.50001 2.50003 2.49995 2.5 
2.50002 2.5 2.50002 2.50001 2.50001 2.49999 2.5 2.5 2.50001 
2.49999 2.49999 2.50008 2.49998 2.49997 2.49997 2.50003 2.49999 2.50002 
2.49999 2.50009 2.49998 2.50009 2.5 2.5 2.5 2.5 2.49998 
2.49999 2.49999 2.5 2.49998 2.49999 2.50003 2.50001 1.86757 1.85859 
2.17184 1.92667 2.49995 2.50002 2.50003 2.37813 1.86233 2.5 2.49993 
2.50002 2.49997 2.5 2.50006 2.50001 2.50001 2.49998 2.50009 2.49999 
2.49998 2.5 2.50001 2.50002 2.50003 2.50005 2.49997 2.49998 2.50004 
2.49999 2.49995 2.49999 2.50002 2.50003 2.49999 2.5 2.49999 2.49997 
2.5 2.5 2.49999 2.49999 2.50002 2.49998 2.5 2.50001 2.50002 
2.49997 2.50001 2.49997 2.49998 2.5 2.5 2.50008 2.50001 2.50008 
2.50001 2.5 2.5 2.50008 2.49996 2.50008 2.49996 2.5 2.49998 
2.50001 2.49999 2.5 2.50001 2.49997 2.5 2.49999 2.49999 2.5 
2.50001 2.49984 2.50002 2.49991 2.50001 2.5 2.5 2.49991 2.50021 
2.50001 2.49995 2.50001 2.49998 2.5 2.50002 2.49999 2.49997 2.50004 
2.50001 2.50004 2.49999 2.50004 2.50004 2.5 2.50002 2.49999 2.49998 
2.49998 2.50004 2.49998 2.5 2.49998 2.49998 2.49997 2.5 2.49997 
2.49998 2.49997 2.5 2.5 2.5 2.49998 2.50001 2.5 2.50001 
2.5 2.49999 2.49999 2.5 2.50001 2.49999 2.49998 2.49999 2.50003 
2.50006 2.50001 2.49999 2.50001 2.5 2.50003 2.50005 2.5 2.5 
2.49996 2.5 2.49998 2.49999 2.49997 2.50001 2.5 2.49998 2.49995 
2.49999 2.49997 2.49987 2.50009 2.49999 2.49985 2.5 2.50001 2.50002 
2.4999 2.50005 2.5 2.49992 2.50001 2.50007 2.49996 2.50007 2.50002 
2.50002 2.5 2.5 2.49998 2.49999 2.49998 2.5 2.50002 2.49999 
2.50002 2.50005 2.5 2.50001 2.49997 2.5 2.49999 2.50003 2.49999 
2.50004 2.50001 2.5 2.50001 2.50001 2.49999 2.50002 2.49999 2.5 
2.50002 2.49999 2.5 2.49999 2.5 2.5 2.49999 2.49999 2.5 
2.5 2.49999 2.50006 2.5 2.50002 2.50001 2.49999 2.5 2.50005 
2.5 2.49997 2.5 2.49999 2.50001 2.49993 2.49999 2.50002 2.49999 
2.50005 2.49997 2.49999 2.49996 2.49997 2.50008 2.49993 2.50003 2.50005 
2.50001 2.50004 2.50002 2.50005 2.50002 2.5 2.50003 2.5 2.5 
2.5 2.49999 2.5 2.49997 2.50003 2.49997 2.50001 2.50001 2.5 
2.50001 2.49998 2.5 2.5 2.49998 2.50005 2.50001 2.5 2.5 
2.50005 2.49998 2.5 2.49998 2.49998 2.5 2.49999 2.5 2.50001 
2.50001 2.5 2.50001 2.5 2.50001 2.5 2.5 2.50001 2.5 
2.49999 2.50002 2.5 2.50001 2.50002 2.49999 2.5 2.5 2.5 
2.5 2.5 2.5 2.50004 2.49998 2.50005 2.49996 2.5 2.50001 
2.50003 2.49994 2.5 2.5 2.5 2.5 1.85147 1.85159 1.85436 
1.86131 1.8515 1.86899 1.86911 1.87224 1.86924 1.8516 1.85439 1.86168 
1.85156 1.86939 1.87234 1.86948 1.87341 1.87339 1.87381 1.8734 1.87392 
1.87387 1.87391 1.8739 1.87348 1.8738 1.87344 1.87395 1.87386 1.87387 
1.85164 1.85443 1.86207 1.85159 1.86962 1.87246 1.86974 1.85168 1.85449 
1.86242 1.85163 1.86982 1.87258 1.86995 1.87351 1.87385 1.87352 1.87393 
1.87387 1.87389 1.87348 1.87391 1.87361 1.87394 1.87394 1.87398 1.87384 
1.87384 1.87384 1.87388 1.87387 1.87388 1.87407 1.8738 1.87386 1.87389 
1.87377 1.87377 1.874 1.87384 1.87394 1.87389 1.87394 1.87391 1.87394 
1.87394 1.87384 1.87395 1.87397 1.87387 1.87396 1.87397 1.87397 1.87395 
1.87383 1.87383 1.87383 1.87383 1.87399 1.87379 1.87385 1.87397 1.8738 
1.8738 1.87382 1.87382 1.87399 1.87399 1.87401 1.87394 1.87388 1.87403 
1.87401 1.87399 1.87401 1.87392 1.87399 1.87393 1.87383 1.87389 1.87382 
1.87383 1.87393 1.87386 1.87394 1.87389 1.87383 1.87378 1.87397 1.87381 
1.87387 1.87378 1.8738 1.87391 1.87381 1.87386 1.87393 1.87397 1.87378 
1.87389 1.87395 1.87381 1.87397 1.87382 1.87388 1.87378 1.87386 1.87396 
1.87393 1.87386 1.87379 1.87391 1.8738 1.87399 1.87391 1.87394 1.87386 
1.87391 1.87385 1.87394 1.87386 1.87367 1.8739 1.87379 1.87369 1.87392 
1.87376 1.87385 1.89373 1.88884 1.87393 1.87405 1.8737 1.87389 1.87387 
1.87394 1.87394 1.87383 1.87388 1.87376 1.87372 1.87387 1.90916 1.90705 
1.87396 1.8736 1.90914 1.91022 1.91225 2.20006 2.46741 2.46725 2.20315 
2.46679 2.46394 2.49992 2.49997 2.49995 1.87372 1.90338 1.89841 2.18081 
2.46057 2.45578 2.13742 2.44615 2.43361 2.50017 2.50008 2.50008 2.50003 
2.49999 2.50003 2.4999 2.50003 2.49989 2.49999 2.49997 2.49998 2.49995 
2.49993 2.49999 2.47726 2.50038 2.49999 2.50051 2.5 2.49999 2.50001 
2.50001 2.50049 2.49992 2.50037 2.5 2.50001 2.5 2.5 2.50001 
2.49999 2.49999 2.5 2.5 2.50001 2.5 2.5 2.5 2.50001 
2.5 2.50001 2.5 2.50031 2.50013 2.5003 2.50001 2.50001 2.49998 
2.50025 2.50026 2.50019 2.49994 2.5 2.49992 2.49999 2.5 2.50001 
2.50001 2.49999 2.49999 2.50001 2.5 2.5 2.50001 2.5 2.5 
2.50001 2.5 2.50001 2.50001 2.5 2.5 2.5 2.5 2.5 
2.5 2.5 2.5 2.5 2.5 2.5 2.5 2.5 2.50001 
2.50001 2.50001 2.49999 2.5 2.5 2.50001 2.5 2.49999 2.50001 
2.5 2.50001 2.5 2.5 2.5 2.5 2.5 2.50001 2.5 
2.5 2.5 2.5 2.5 2.5 2.5 2.50001 2.50001 2.49999 
2.50001 2.50001 2.5 2.5 2.5 2.50001 2.49999 1.85172 1.85455 
1.86286 1.85174 1.87009 1.87269 1.87014 1.85176 1.85465 1.86323 1.8518 
1.87028 1.87276 1.87038 1.87354 1.87388 1.87362 1.87389 1.8739 1.87397 
1.87361 1.87391 1.87368 1.87392 1.87387 1.87394 1.85182 1.85476 1.86359 
1.8519 1.87049 1.87287 1.87056 1.85189 1.85489 1.86395 1.85195 1.87065 
1.87294 1.87077 1.87367 1.87388 1.87368 1.87391 1.87389 1.87393 1.87371 
1.87391 1.87372 1.87394 1.8739 1.87383 1.87384 1.87395 1.87391 1.87381 
1.87378 1.8738 1.87381 1.87396 1.87396 1.8738 1.87385 1.8739 1.87404 
1.87412 1.87389 1.87392 1.87385 1.87396 1.87401 1.87403 1.87397 1.87386 
1.8738 1.87387 1.87396 1.87383 1.87386 1.87375 1.87385 1.87369 1.87389 
1.87373 1.87406 1.87408 1.87359 1.87379 1.87375 1.8741 1.87411 1.87406 
1.87365 1.8739 1.87397 1.87422 1.87366 1.87381 1.87392 1.87425 1.87384 
1.87377 1.87371 1.87381 1.87407 1.8739 1.87398 1.87379 1.87374 1.87378 
1.87686 1.87479 1.87391 1.88377 1.87976 2.06854 2.4163 2.38979 1.99324 
2.36093 2.31971 2.49822 2.49999 2.50001 1.87416 1.87394 1.87372 1.93499 
2.27506 2.22292 1.89726 2.15832 2.08755 2.45422 2.50007 2.50021 2.48677 
2.50007 2.49988 2.5 2.50004 2.50002 2.5 2.50004 2.50002 2.50006 
2.50008 2.5001 2.50014 2.50009 2.5 2.50007 2.50002 2.50006 2.50009 
2.50007 2.50009 2.50001 2.5 2.49999 2.49999 2.49997 2.49998 2.49998 
2.49992 2.49997 2.50001 2.49997 2.49999 2.49994 2.49996 2.49996 2.50006 
2.50002 2.50006 2.49998 2.50003 2.49997 2.50002 2.49998 2.5 2.49999 
2.5 2.50002 2.49996 2.49998 2.49998 2.49998 2.49995 2.49998 2.49997 
2.5 2.49996 2.49998 2.49997 2.49995 2.50012 2.50027 2.50005 2.49995 
2.5 2.50004 2.50004 2.50021 2.50002 2.50013 2.49998 2.50017 2.5 
2.5 2.5 2.5 2.5 2.50001 2.5 2.50001 2.5 2.49999 
2.50001 2.50001 2.50002 2.50015 2.49999 2.50019 2.49992 2.5002 2.49998 
2.50007 2.49997 2.50019 2.49997 2.50019 2.5 2.50001 2.5 2.49999 
2.5 2.50001 2.49999 2.50001 2.49999 2.49999 2.50001 2.50001 2.5 
2.5 2.5 2.5 2.5 2.5 2.5 2.5 2.5 2.5 
2.5 2.5 2.5 2.5 2.5 2.50001 2.5 2.50001 2.50001 
2.5 2.50001 2.5 2.50001 2.49999 2.5 2.5 2.5 2.5 
2.5 2.5 2.5 2.5 2.5 2.5 2.5 2.5 2.5 
2.5 2.49999 2.5 2.5 2.50001 2.50001 2.5 2.50001 2.5 
2.50001 2.49999 1.852 1.855 1.86433 1.85194 1.87077 1.87305 1.87096 
1.8521 1.85519 1.86468 1.85204 1.871 1.87309 1.87101 1.87373 1.87385 
1.87377 1.87398 1.87391 1.87381 1.87367 1.87394 1.87381 1.87388 1.87384 
1.87399 1.85204 1.85536 1.86502 1.85217 1.87118 1.87311 1.87126 1.85216 
1.85565 1.8653 1.85222 1.87127 1.87328 1.87134 1.87384 1.87389 1.87374 
1.87381 1.87388 1.87385 1.87379 1.87402 1.87383 1.87394 1.87373 1.87393 
1.87379 1.87415 1.87384 1.87361 1.87398 1.8742 1.87417 1.87361 1.87367 
1.87392 1.87445 1.87331 1.87429 1.87386 1.87395 1.87822 2.01636 1.96186 
1.87343 1.92516 1.90035 2.25493 2.48123 2.46036 1.87382 1.87388 1.87417 
1.8744 1.88328 1.87658 1.87379 1.87446 1.87387 1.93764 2.28898 2.18779 
2.07476 2.41932 2.35492 2.50031 2.49983 2.50007 2.48641 2.50007 2.5 
2.50003 2.50002 2.49996 2.3802 2.4991 2.49386 2.50004 2.49996 2.50003 
2.50014 2.50002 2.49998 2.50004 2.49998 2.49994 2.50007 2.50002 2.50009 
2.50008 2.50005 2.50009 2.50003 2.50006 2.50002 2.5001 2.50001 2.50005 
2.49996 2.50004 2.50002 2.49993 2.50006 2.49995 2.49989 2.50001 2.49993 
2.49996 2.50004 2.50006 2.5 2.50009 2.50001 2.50004 2.49998 2.50002 
2.50006 2.50004 2.50007 2.49999 2.50004 2.49999 2.50001 2.49998 2.5 
2.50002 2.49997 2.50002 2.49999 2.5 2.5 2.50001 2.49999 2.49996 
2.50001 2.50002 2.5 2.49994 2.49998 2.49996 2.50003 2.5 2.50003 
2.49996 2.49996 2.49996 2.5 2.50003 2.5 2.49995 2.49999 2.49995 
2.50002 2.49998 2.50005 2.49997 2.49999 2.49999 2.5 2.5 2.50001 
2.49996 2.49999 2.49995 2.49999 2.50001 2.50001 2.49996 2.5 2.49996 
2.49998 2.50002 2.49999 2.50016 2.50011 2.50016 2.49998 2.5 2.49997 
2.50012 2.50016 2.50011 2.49997 2.5 2.49994 2.5 2.50001 2.5 
2.49993 2.49998 2.49993 2.49999 2.50001 2.5 2.49996 2.49998 2.49997 
2.50007 2.50016 2.50005 2.49998 2.49998 2.49998 2.50002 2.50014 2.50002 
2.49999 2.49998 2.50004 2.49999 2.50001 2.49999 2.5001 2.49996 2.50011 
2.49997 2.5 2.49997 2.5 2.5 2.5 2.5 2.5 2.5 
2.5 2.5 2.5 2.5 2.5 2.5 2.5 2.5 2.5 
2.5 2.50002 2.5 2.5 2.5 2.5 2.50002 2.49998 2.50002 
2.5 2.5 2.5 2.5 2.5 2.5 2.5 2.5 2.5 
2.5 2.5 2.50001 2.50001 2.5 2.50001 2.49998 2.50003 2.49999 
2.49999 2.5 2.5 2.50002 2.49997 2.49999 1.85217 1.85586 1.86566 
1.85221 1.87139 1.8732 1.87156 1.85241 1.8563 1.86593 1.85236 1.87164 
1.87324 1.87162 1.87387 1.87386 1.87393 1.87399 1.87408 1.87383 1.87374 
1.87391 1.87371 1.87369 1.92483 1.89268 1.85256 1.85682 1.86634 1.85256 
1.87172 1.87357 1.87164 1.85253 1.85741 1.86664 1.85273 1.87173 1.87356 
1.87195 1.87382 1.8783 1.87386 2.01976 2.37976 2.28956 1.89874 2.17343 
2.03679 2.46247 2.49998 2.49987 1.88387 2.07343 1.97913 2.42585 2.50036 
2.49813 2.2636 2.48443 2.44733 2.49993 2.50009 2.49997 2.50003 2.49992 
2.50005 2.5 2.50006 2.49994 2.49997 2.50001 2.50003 2.49998 2.49996 
2.5 2.49949 2.49996 2.50001 2.49996 2.49999 2.50002 2.49999 2.50001 
2.50004 2.5 2.49998 2.50001 2.49997 2.50005 2.49996 2.49998 2.49998 
2.50003 2.5 2.49998 2.49996 2.50003 2.5 2.49999 2.50003 2.49993 
2.50001 2.50011 2.49998 2.50008 2.50002 2.50003 2.50002 2.50005 2.50006 
2.50001 2.50005 2.49999 2.50004 2.49999 2.50002 2.5 2.5 2.49998 
2.49996 2.49999 2.5 2.49998 2.49998 2.50008 2.50003 2.5 2.50004 
2.50002 2.50006 2.50006 2.50005 2.50003 2.49999 2.50004 2.49995 2.5 
2.49997 2.50002 2.50002 2.50002 2.49998 2.50001 2.49999 2.5 2.49997 
2.50004 2.50005 2.49995 2.50004 2.49999 2.5 2.50001 2.50003 2.49999 
2.49997 2.50001 2.49999 2.49999 2.5 2.5 2.50003 2.49997 2.49999 
2.49997 2.50002 2.49999 2.50001 2.49996 2.50001 2.49996 2.49996 2.50003 
2.49998 2.5 2.50002 2.5 2.5 2.50001 2.50001 2.50004 2.49999 
2.50003 2.5 2.5 2.5 2.49996 2.50001 2.49997 2.50001 2.5 
2.50001 2.49997 2.5 2.49997 2.49997 2.49999 2.49998 2.50001 2.50011 
2.5 2.49996 2.49998 2.49999 2.5 2.50008 2.49999 2.50014 2.49995 
2.50011 2.49996 2.49999 2.49999 2.50013 2.5 2.50011 2.49998 2.49998 
2.5 2.49998 2.49998 2.49999 2.49998 2.50004 2.49999 2.49998 2.49999 
2.49998 2.49999 2.50002 2.5 2.50012 2.50007 2.5001 2.49997 2.49997 
2.49999 2.5001 2.50011 2.50007 2.49995 2.49999 2.49997 2.5 2.5 
2.5 2.5 2.5 2.5 2.49999 2.50001 2.49999 2.50001 2.5 
2.5 2.50001 2.5 2.5 2.49999 2.50002 2.50002 2.49999 2.5 
2.50001 2.49999 2.50002 2.50001 2.49998 2.49999 2.49997 2.49999 2.5 
2.50001 2.49997 2.49999 2.49996 2.5 2.50001 2.49999 2.49999 2.5 
2.5 2.5 2.5 2.49999 2.5 2.5 2.49999 2.50001 2.49998 
2.49999 1.85255 1.85815 1.86692 1.85288 1.87234 1.94586 1.89609 1.85324 
1.85922 1.87128 1.85254 2.02489 2.38667 2.28206 2.29383 2.49265 2.46356 
2.5 2.50004 2.50002 2.49977 2.50001 2.50001 2.50004 2.5 2.49999 
1.86337 1.86132 2.1449 1.96947 2.4535 2.5 2.49963 2.24759 1.86857 
2.49074 2.4767 2.5 2.50004 2.50001 2.50001 2.49999 2.50003 2.50002 
2.5 2.50001 2.50002 2.50002 2.5 2.49998 2.49999 2.49999 2.49999 
2.5 2.50001 2.50002 2.50001 2.49999 2.5 2.49999 2.49998 2.5 
2.50003 2.49999 2.50001 2.49995 2.50003 2.49996 2.50005 2.49995 2.5 
2.5 2.49999 2.49993 2.50004 2.5 2.49999 2.5 2.5 2.5 
2.50001 2.50001 2.49999 2.49998 2.49998 2.49998 2.49996 2.5 2.50002 
2.5 2.49998 2.50006 2.50001 2.5001 2.49997 2.50002 2.49997 2.5001 
2.50003 2.50008 2.50006 2.5 2.50008 2.50006 2.49996 2.50002 2.50008 
2.5 2.50004 2.49997 2.49999 2.49996 2.5 2.50001 2.50001 2.50001 
2.49995 2.5 2.50001 2.50003 2.5 2.50001 2.49997 2.49996 2.50001 
2.50006 2.49997 2.49997 2.50001 2.49995 2.49997 2.50001 2.49997 2.49999 
2.50001 2.50003 2.49999 2.49997 2.50003 2.49997 2.49999 2.49998 2.49999 
2.49997 2.49998 2.49997 2.5 2.49999 2.5 2.49999 2.50001 2.50003 
2.5 2.50002 2.49998 2.49998 2.49998 2.50001 2.50003 2.5 2.50001 
2.49999 2.5 2.49998 2.50001 2.49998 2.5 2.49999 2.49998 2.49997 
2.50001 2.49996 2.49999 2.50001 2.5 2.49999 2.50002 2.5 2.50001 
2.49999 2.50001 2.5 2.50001 2.50001 2.50001 2.49999 2.50001 2.49998 
2.5 2.49998 2.50002 2.49997 2.5 2.49999 2.5 2.5 2.49997 
2.49998 2.49999 2.49999 2.50001 2.5 2.49999 2.49998 2.5 2.49998 
2.5 2.49999 2.50006 2.50012 2.50007 2.49998 2.50001 2.50002 2.50004 
2.5001 2.50003 2.50006 2.49999 2.50006 2.49999 2.49999 2.49999 2.49998 
2.49998 2.50001 2.49997 2.49998 2.49999 2.5 2.49998 2.5 2.50001 
2.50009 2.50003 2.5001 2.49997 2.50007 2.5 2.50004 2.50001 2.50009 
2.49999 2.50008 2.49998 2.49997 2.49999 2.49999 2.5 2.49998 2.5 
2.49996 2.50001 2.49998 2.49999 2.49997 2.5 2.49999 2.50001 2.50001 
2.49999 2.49999 2.49999 2.49999 2.50001 2.5 2.50001 2.5 2.5 
2.49999 2.50001 2.49996 2.49998 2.49996 2.50001 2.5 2.50001 2.49998 
2.49997 2.49999 2.5 2.5 2.5 2.5 2.50001 2.5 2.49998 
2.5 2.49997 2.5 2.50001 2.49999 2.50023 2.49837 2.49998 2.4999 
2.50003 2.5 2.5 2.49973 2.50017 2.49996 2.49977 2.49999 2.49999 
2.49999 2.49999 2.49999 2.49999 2.50001 2.49999 2.49999 2.49999 2.50001 
2.50001 2.50001 2.50003 2.50001 2.49985 2.49996 2.49989 2.4999 2.49999 
2.50001 2.5 2.49991 2.50032 2.49995 2.49991 2.50001 2.50001 2.50001 
2.50001 2.5 2.50002 2.5 2.5 2.49999 2.50001 2.49998 2.49999 
2.49999 2.49998 2.49998 2.50002 2.50001 2.50001 2.5 2.49999 2.49999 
2.50002 2.50003 2.50001 2.50001 2.50002 2.49998 2.49999 2.50008 2.50005 
2.50004 2.50003 2.5 2.5001 2.50004 2.50005 2.49999 2.49995 2.5 
2.50001 2.49999 2.49998 2.49999 2.50007 2.50002 2.5 2.49999 2.5 
2.50008 2.50003 2.50008 2.50003 2.50001 2.50002 2.50002 2.49999 2.50003 
2.5 2.49999 2.50001 2.49999 2.50004 2.49997 2.5 2.49993 2.50003 
2.50003 2.50002 2.50001 2.50002 2.50003 2.49997 2.49999 2.50003 2.49997 
2.50002 2.49998 2.49998 2.49998 2.50001 2.5 2.50001 2.49998 2.49999 
2.49999 2.49999 2.49998 2.49998 2.50002 2.49998 2.5 2.50002 2.5 
2.50003 2.49996 2.50002 2.50001 2.50003 2.5 2.50002 2.49997 2.49999 
2.5 2.5 2.5 2.49999 2.49998 2.49997 2.49999 2.5 2.49999 
2.5 2.5 2.49999 2.49999 2.50001 2.50001 2.49998 2.49999 2.5 
2.5 2.5 2.49998 2.50003 2.49999 2.50001 2.49998 2.5 2.49999 
2.50001 2.49998 2.50002 2.49999 2.49998 2.49999 2.5 2.5 2.50002 
2.50001 2.50001 2.50001 2.5 2.50002 2.49999 2.50002 2.49999 2.50001 
2.50001 2.49998 2.50002 2.49998 2.50002 2.49998 2.50001 2.50001 2.5 
2.49999 2.50001 2.49996 2.49999 2.49998 2.50001 2.49998 2.49999 2.49999 
2.5 2.5 2.49998 2.5 2.50001 2.49998 2.50001 2.50003 2.5 
2.50006 2.50003 2.50009 2.5 2.50004 2.49999 2.50007 2.50006 2.50005 
2.5 2.5 2.49999 2.5 2.49999 2.5 2.49999 2.49998 2.50001 
2.49998 2.49999 2.49999 2.5 2.5 2.50001 2.50007 2.50007 2.50004 
2.49999 2.5 2.5 2.50003 2.50007 2.50005 2.5 2.5 2.49999 
2.50001 2.49995 2.5 2.49998 2.5 2.49997 2.5 2.5 2.5 
2.49997 2.5 2.49997 2.49999 2.5 2.5 2.49996 2.49997 2.49995 
2.5 2.49999 2.49999 2.49997 2.5 2.49999 2.5 2.5 2.5 
2.50002 2.5 2.50004 2.49999 2.5 2.5 2.49997 2.49996 2.49999 
2.49998 2.5 2.49997 2.5 2.49996 2.5 2.49996 2.49998 2.49996 
2.49991 2.50005 2.49991 2.49993 2.49999 2.50001 2.49994 2.49998 2.50018 
2.49984 2.50004 2.49993 2.49998 2.49993 2.49998 2.49999 2.5 2.49998 
2.49999 2.50002 2.49999 2.49999 2.50001 2.49999 2.49997 2.50001 2.50008 
2.49998 2.49988 2.50006 2.49995 2.49999 2.49997 2.50003 2.50018 2.49991 
2.50002 2.49997 2.50001 2.49993 2.50001 2.49999 2.5 2.49998 2.50003 
2.49997 2.49999 2.49999 2.49997 2.50001 2.50005 2.50007 2.49998 2.50008 
2.50002 2.50005 2.50004 2.50006 2.50006 2.50003 2.50008 2.5 2.50001 
2.49999 2.50001 2.50002 2.50001 2.49999 2.49998 2.50001 2.5 2.50002 
2.5 2.50002 2.50001 2.50004 2.50003 2.50002 2.50004 2.49999 2.49998 
2.49999 2.50003 2.50003 2.50002 2.5 2.50002 2.50001 2.5 2.49999 
2.50002 2.49998 2.5 2.5 2.49999 2.50003 2.50003 2.49999 2.49997 
2.50002 2.49999 2.50001 2.49996 2.49999 2.50002 2.49999 2.49995 2.49998 
2.50002 2.50001 2.50001 2.50001 2.49998 2.49998 2.49998 2.5 2.49999 