# vtk DataFile Version 3.0
vtk output
ASCII
DATASET UNSTRUCTURED_GRID
FIELD FieldData 1
avtOriginalBounds 1 6 double
-0.75 0.75 -0.5 0.5 0 0 
POINTS 3185 double
0.75 -0.232051 0 0.75 -0.110042 0 0.552083 -0.154701 0 
0.55 -0.285641 0 0.75 0.011966 0 0.554167 -0.0237605 0 
0.75 0.133974 0 0.55625 0.10718 0 0.75 0.255983 0 
0.558333 0.23812 0 0.75 0.377992 0 0.560417 0.36906 0 
0.75 0.5 0 0.5625 0.5 0 0.354167 -0.199359 0 
0.35 -0.339231 0 0.358333 -0.0594871 0 0.3625 0.0803847 0 
0.366667 0.220256 0 0.370833 0.360128 0 0.375 0.5 0 
0.15625 -0.244017 0 0.15 -0.39282 0 0.1625 -0.0952136 0 
0.16875 0.0535898 0 0.175 0.202393 0 0.18125 0.351197 0 
0.1875 0.5 0 -0.0416667 -0.288675 0 -0.05 -0.44641 0 
-0.0333333 -0.13094 0 -0.025 0.0267949 0 -0.0166667 0.18453 0 
-0.00833333 0.342265 0 0 0.5 0 -0.239583 -0.333333 0 
-0.25 -0.5 0 -0.229167 -0.166667 0 -0.21875 6.05576e-18 0 
-0.208333 0.166667 0 -0.197917 0.333333 0 -0.1875 0.5 0 
-0.409722 -0.333333 0 -0.416667 -0.5 0 -0.402778 -0.166667 0 
-0.395833 6.05576e-18 0 -0.388889 0.166667 0 -0.381944 0.333333 0 
-0.375 0.5 0 -0.579861 -0.333333 0 -0.583333 -0.5 0 
-0.576389 -0.166667 0 -0.572917 6.05576e-18 0 -0.569444 0.166667 0 
-0.565972 0.333333 0 -0.5625 0.5 0 -0.75 -0.333333 0 
-0.75 -0.5 0 -0.75 -0.166667 0 -0.75 0 0 
-0.75 0.166667 0 -0.75 0.333333 0 -0.75 0.5 0 
0.75 -0.171047 0 0.650521 -0.195609 0 0.65 -0.258846 0 
0.651042 -0.132372 0 0.551042 -0.220171 0 0.75 -0.0490382 0 
0.651563 -0.0691344 0 0.652083 -0.00589727 0 0.553125 -0.0892306 0 
0.75 0.0729703 0 0.652604 0.0573399 0 0.653125 0.120577 0 
0.555208 0.0417095 0 0.75 0.194979 0 0.653646 0.183814 0 
0.654167 0.247051 0 0.557292 0.17265 0 0.75 0.316987 0 
0.654687 0.310289 0 0.655208 0.373526 0 0.559375 0.30359 0 
0.75 0.438996 0 0.655729 0.436763 0 0.65625 0.5 0 
0.561458 0.43453 0 0.451562 -0.244733 0 0.45 -0.312436 0 
0.453125 -0.17703 0 0.352083 -0.269295 0 0.454688 -0.109327 0 
0.45625 -0.0416238 0 0.35625 -0.129423 0 0.457812 0.0260792 0 
0.459375 0.0937821 0 0.360417 0.0104488 0 0.460937 0.161485 0 
0.4625 0.229188 0 0.364583 0.150321 0 0.464062 0.296891 0 
0.465625 0.364594 0 0.36875 0.290192 0 0.467187 0.432297 0 
0.46875 0.5 0 0.372917 0.430064 0 0.252604 -0.293857 0 
0.25 -0.366026 0 0.255208 -0.221688 0 0.153125 -0.318419 0 
0.257812 -0.149519 0 0.260417 -0.0773503 0 0.159375 -0.169615 0 
0.263021 -0.00518154 0 0.265625 0.0669872 0 0.165625 -0.0208119 0 
0.268229 0.139156 0 0.270833 0.211325 0 0.171875 0.127992 0 
0.273437 0.283494 0 0.276042 0.355662 0 0.178125 0.276795 0 
0.278646 0.427831 0 0.28125 0.5 0 0.184375 0.425598 0 
0.0536458 -0.342981 0 0.05 -0.419615 0 0.0572917 -0.266346 0 
-0.0458333 -0.367543 0 0.0609375 -0.189711 0 0.0645833 -0.113077 0 
-0.0375 -0.209808 0 0.0682292 -0.0364423 0 0.071875 0.0401924 0 
-0.0291667 -0.0520726 0 0.0755208 0.116827 0 0.0791667 0.193462 0 
-0.0208333 0.105662 0 0.0828125 0.270096 0 0.0864583 0.346731 0 
-0.0125 0.263397 0 0.0901042 0.423365 0 0.09375 0.5 0 
-0.00416667 0.421132 0 -0.145313 -0.392105 0 -0.15 -0.473205 0 
-0.140625 -0.311004 0 -0.244792 -0.416667 0 -0.135937 -0.229904 0 
-0.13125 -0.148803 0 -0.234375 -0.25 0 -0.126562 -0.067703 0 
-0.121875 0.0133975 0 -0.223958 -0.0833333 0 -0.117187 0.0944979 0 
-0.1125 0.175598 0 -0.213542 0.0833333 0 -0.107812 0.256699 0 
-0.103125 0.337799 0 -0.203125 0.25 0 -0.0984375 0.4189 0 
-0.09375 0.5 0 -0.192708 0.416667 0 -0.328993 -0.416667 0 
-0.333333 -0.5 0 -0.324653 -0.333333 0 -0.413194 -0.416667 0 
-0.320312 -0.25 0 -0.315972 -0.166667 0 -0.40625 -0.25 0 
-0.311632 -0.0833333 0 -0.307292 6.05576e-18 0 -0.399306 -0.0833333 0 
-0.302951 0.0833333 0 -0.298611 0.166667 0 -0.392361 0.0833333 0 
-0.294271 0.25 0 -0.289931 0.333333 0 -0.385417 0.25 0 
-0.28559 0.416667 0 -0.28125 0.5 0 -0.378472 0.416667 0 
-0.497396 -0.416667 0 -0.5 -0.5 0 -0.494792 -0.333333 0 
-0.581597 -0.416667 0 -0.492188 -0.25 0 -0.489583 -0.166667 0 
-0.578125 -0.25 0 -0.486979 -0.0833333 0 -0.484375 6.05576e-18 0 
-0.574653 -0.0833333 0 -0.481771 0.0833333 0 -0.479167 0.166667 0 
-0.571181 0.0833333 0 -0.476562 0.25 0 -0.473958 0.333333 0 
-0.567708 0.25 0 -0.471354 0.416667 0 -0.46875 0.5 0 
-0.564236 0.416667 0 -0.665799 -0.416667 0 -0.666667 -0.5 0 
-0.664931 -0.333333 0 -0.75 -0.416667 0 -0.664062 -0.25 0 
-0.663194 -0.166667 0 -0.75 -0.25 0 -0.662326 -0.0833333 0 
-0.661458 3.02788e-18 0 -0.75 -0.0833333 0 -0.66059 0.0833333 0 
-0.659722 0.166667 0 -0.75 0.0833333 0 -0.658854 0.25 0 
-0.657986 0.333333 0 -0.75 0.25 0 -0.657118 0.416667 0 
-0.65625 0.5 0 -0.75 0.416667 0 0.75 -0.201549 0 
0.70013 -0.214388 0 0.7 -0.245448 0 0.70026 -0.183328 0 
0.65026 -0.227227 0 0.75 -0.140545 0 0.700391 -0.152267 0 
0.700521 -0.121207 0 0.650781 -0.16399 0 0.600391 -0.240067 0 
0.6 -0.272243 0 0.600781 -0.20789 0 0.550521 -0.252906 0 
0.601172 -0.175713 0 0.601562 -0.143536 0 0.551562 -0.187436 0 
0.75 -0.0795404 0 0.700651 -0.0901467 0 0.700781 -0.0590863 0 
0.651302 -0.100753 0 0.75 -0.0185361 0 0.700911 -0.028026 0 
0.701042 0.00303437 0 0.651823 -0.0375158 0 0.601953 -0.111359 0 
0.602344 -0.0791825 0 0.552604 -0.121966 0 0.602734 -0.0470057 0 
0.603125 -0.0148289 0 0.553646 -0.0564956 0 0.75 0.0424681 0 
0.701172 0.0340947 0 0.701302 0.0651551 0 0.652344 0.0257213 0 
0.75 0.103472 0 0.701432 0.0962154 0 0.701562 0.127276 0 
0.652865 0.0889585 0 0.603516 0.0173479 0 0.603906 0.0495247 0 
0.554688 0.0089745 0 0.604297 0.0817015 0 0.604687 0.113878 0 
0.555729 0.0744446 0 0.75 0.164477 0 0.701693 0.158336 0 
0.701823 0.189396 0 0.653385 0.152196 0 0.75 0.225481 0 
0.701953 0.220457 0 0.702083 0.251517 0 0.653906 0.215433 0 
0.605078 0.146055 0 0.605469 0.178232 0 0.556771 0.139915 0 
0.605859 0.210409 0 0.60625 0.242586 0 0.557812 0.205385 0 
0.75 0.286485 0 0.702214 0.282578 0 0.702344 0.313638 0 
0.654427 0.27867 0 0.75 0.347489 0 0.702474 0.344698 0 
0.702604 0.375759 0 0.654948 0.341907 0 0.606641 0.274762 0 
0.607031 0.306939 0 0.558854 0.270855 0 0.607422 0.339116 0 
0.607813 0.371293 0 0.559896 0.336325 0 0.75 0.408494 0 
0.702734 0.406819 0 0.702865 0.437879 0 0.655469 0.405144 0 
0.75 0.469498 0 0.702995 0.46894 0 0.703125 0.5 0 
0.65599 0.468381 0 0.608203 0.40347 0 0.608594 0.435646 0 
0.560938 0.401795 0 0.608984 0.467823 0 0.609375 0.5 0 
0.561979 0.467265 0 0.500651 -0.265745 0 0.5 -0.299038 0 
0.501302 -0.232452 0 0.450781 -0.278584 0 0.501953 -0.199158 0 
0.502604 -0.165865 0 0.452344 -0.210881 0 0.400911 -0.291423 0 
0.4 -0.325833 0 0.401823 -0.257014 0 0.351042 -0.304263 0 
0.402734 -0.222604 0 0.403646 -0.188194 0 0.353125 -0.234327 0 
0.503255 -0.132572 0 0.503906 -0.0992787 0 0.453906 -0.143178 0 
0.504557 -0.0659854 0 0.505208 -0.0326922 0 0.455469 -0.0754753 0 
0.404557 -0.153785 0 0.405469 -0.119375 0 0.355208 -0.164391 0 
0.40638 -0.0849651 0 0.407292 -0.0505554 0 0.357292 -0.094455 0 
0.505859 0.000601094 0 0.50651 0.0338944 0 0.457031 -0.00777231 0 
0.507161 0.0671876 0 0.507812 0.100481 0 0.458594 0.0599307 0 
0.408203 -0.0161457 0 0.409115 0.018264 0 0.359375 -0.0245191 0 
0.410026 0.0526737 0 0.410937 0.0870834 0 0.361458 0.0454168 0 
0.508464 0.133774 0 0.509115 0.167067 0 0.460156 0.127634 0 
0.509766 0.200361 0 0.510417 0.233654 0 0.461719 0.195337 0 
0.411849 0.121493 0 0.41276 0.155903 0 0.363542 0.115353 0 
0.413672 0.190313 0 0.414583 0.224722 0 0.365625 0.185289 0 
0.511068 0.266947 0 0.511719 0.30024 0 0.463281 0.26304 0 
0.51237 0.333534 0 0.513021 0.366827 0 0.464844 0.330743 0 
0.415495 0.259132 0 0.416406 0.293542 0 0.367708 0.255224 0 
0.417318 0.327951 0 0.418229 0.362361 0 0.369792 0.32516 0 
0.513672 0.40012 0 0.514323 0.433413 0 0.466406 0.398446 0 
0.514974 0.466707 0 0.515625 0.5 0 0.467969 0.466149 0 
0.419141 0.396771 0 0.420052 0.431181 0 0.371875 0.395096 0 
0.420964 0.46559 0 0.421875 0.5 0 0.373958 0.465032 0 
0.301172 -0.317102 0 0.3 -0.352628 0 0.302344 -0.281576 0 
0.251302 -0.329941 0 0.303516 -0.24605 0 0.304687 -0.210523 0 
0.253906 -0.257772 0 0.201432 -0.34278 0 0.2 -0.379423 0 
0.202865 -0.306138 0 0.151562 -0.35562 0 0.204297 -0.269495 0 
0.205729 -0.232852 0 0.154687 -0.281218 0 0.305859 -0.174997 0 
0.307031 -0.139471 0 0.25651 -0.185604 0 0.308203 -0.103945 0 
0.309375 -0.0684187 0 0.259115 -0.113435 0 0.207161 -0.19621 0 
0.208594 -0.159567 0 0.157812 -0.206816 0 0.210026 -0.122925 0 
0.211458 -0.086282 0 0.160937 -0.132414 0 0.310547 -0.0328925 0 
0.311719 0.00263364 0 0.261719 -0.0412659 0 0.312891 0.0381598 0 
0.314062 0.073686 0 0.264323 0.0309029 0 0.212891 -0.0496393 0 
0.214323 -0.0129967 0 0.164062 -0.0580127 0 0.215755 0.0236459 0 
0.217187 0.0602885 0 0.167187 0.016389 0 0.315234 0.109212 0 
0.316406 0.144738 0 0.266927 0.103072 0 0.317578 0.180264 0 
0.31875 0.215791 0 0.269531 0.17524 0 0.21862 0.0969311 0 
0.220052 0.133574 0 0.170312 0.0907907 0 0.221484 0.170216 0 
0.222917 0.206859 0 0.173438 0.165192 0 0.319922 0.251317 0 
0.321094 0.286843 0 0.272135 0.247409 0 0.322266 0.322369 0 
0.323437 0.357895 0 0.27474 0.319578 0 0.224349 0.243502 0 
0.225781 0.280144 0 0.176563 0.239594 0 0.227214 0.316787 0 
0.228646 0.35343 0 0.179688 0.313996 0 0.324609 0.393421 0 
0.325781 0.428948 0 0.277344 0.391747 0 0.326953 0.464474 0 
0.328125 0.5 0 0.279948 0.463916 0 0.230078 0.390072 0 
0.23151 0.426715 0 0.182813 0.388397 0 0.232943 0.463357 0 
0.234375 0.5 0 0.185938 0.462799 0 0.101693 -0.368459 0 
0.1 -0.406218 0 0.103385 -0.3307 0 0.0518229 -0.381298 0 
0.105078 -0.292941 0 0.106771 -0.255182 0 0.0554687 -0.304663 0 
0.00195312 -0.394137 0 -2.08167e-17 -0.433013 0 0.00390625 -0.355262 0 
-0.0479167 -0.406976 0 0.00585937 -0.316386 0 0.0078125 -0.277511 0 
-0.04375 -0.328109 0 0.108464 -0.217422 0 0.110156 -0.179663 0 
0.0591146 -0.228029 0 0.111849 -0.141904 0 0.113542 -0.104145 0 
0.0627604 -0.151394 0 0.00976562 -0.238635 0 0.0117187 -0.19976 0 
-0.0395833 -0.249241 0 0.0136719 -0.160884 0 0.015625 -0.122008 0 
-0.0354167 -0.170374 0 0.115234 -0.0663862 0 0.116927 -0.0286271 0 
0.0664062 -0.0747596 0 0.11862 0.009132 0 0.120312 0.0468911 0 
[...]
POINT_DATA 3185
SCALARS density_aux double
LOOKUP_TABLE default
2.21837 2.27282 2.27472 2.21791 2.28278 2.28284 2.28385 1.7852 1.71213 
1.22198 1.22202 1.22232 1.22223 1.22221 2.27572 2.21717 1.97424 1.22445 
1.22222 1.22202 1.22223 2.17809 2.21446 1.25315 1.22213 1.2224 1.22193 
1.22219 1.37416 2.23977 1.22202 1.22223 1.22236 1.22196 1.22219 1.22227 
1.49599 1.222 1.22224 1.22221 1.22216 1.22226 1.22209 1.22286 1.22201 
1.22232 1.22223 1.22208 1.22248 1.22198 1.22253 1.22216 1.22232 1.22223 
1.22206 1.2226 1.22221 1.22221 1.22221 1.22221 1.22221 1.22221 1.22221 
2.24982 2.25133 2.2179 2.27355 2.25214 2.28063 2.28085 2.28318 2.28092 
2.28361 2.28338 2.23335 2.24336 2.22533 1.74182 1.29812 1.30972 1.28115 
1.22112 1.2224 1.22159 1.22223 1.22225 1.22223 1.22221 2.25367 2.21751 
2.27489 2.25432 2.28098 2.25848 2.27072 1.86821 1.33832 1.38566 1.22237 
1.22224 1.22227 1.22186 1.22216 1.22193 1.22217 1.22224 1.22222 2.25465 
2.21625 2.2738 2.25589 2.08412 1.46656 1.58098 1.23293 1.22221 1.22192 
1.22238 1.22231 1.22231 1.22194 1.22193 1.22194 1.22227 1.22219 1.2223 
2.2316 2.2143 1.75818 1.97195 1.29465 1.2219 1.22346 1.22189 1.22221 
1.2221 1.22222 1.22243 1.22224 1.2221 1.22192 1.22226 1.22231 1.2222 
1.22224 1.4951 2.32247 1.23392 1.24424 1.22221 1.22196 1.22207 1.22209 
1.22216 1.22216 1.22226 1.22217 1.22229 1.22234 1.22207 1.22223 1.22217 
1.22221 1.22214 1.22194 1.22477 1.22232 1.22237 1.22193 1.22217 1.22185 
1.22228 1.2222 1.22221 1.22224 1.22221 1.22221 1.2221 1.22219 1.22218 
1.22219 1.22236 1.22219 1.22269 1.22237 1.22205 1.22263 1.22215 1.22213 
1.22212 1.22218 1.2223 1.22206 1.22221 1.2222 1.22218 1.22217 1.22201 
1.22221 1.22221 1.22262 1.22214 1.22229 1.22236 1.22224 1.22221 1.22222 
1.22233 1.22221 1.22219 1.22221 1.22221 1.22222 1.22219 1.22221 1.22224 
1.22219 1.22221 1.22207 1.22249 1.22221 2.23064 2.23089 2.21808 2.25055 
2.23108 2.26383 2.2646 2.27325 2.26527 2.23141 2.218 2.25172 2.23169 
2.26585 2.27411 2.26638 2.27793 2.27801 2.28066 2.27809 2.28198 2.28215 
2.28306 2.28242 2.2785 2.28093 2.27887 2.28232 2.28306 2.28206 2.28333 
2.28353 2.28362 2.28339 2.28383 2.28359 2.28072 2.28093 2.28322 2.28134 
2.28182 2.2373 2.08261 2.09876 2.28007 2.23166 2.06745 2.07194 2.04969 
1.73735 1.45868 1.46527 1.75842 1.47264 1.48628 1.30267 1.2356 1.23762 
1.42587 1.29695 1.23277 1.23436 1.22958 1.22177 1.22236 1.22196 1.22152 
1.22155 1.22181 1.222 1.22236 1.22198 1.22223 1.22226 1.22221 1.2222 
1.22223 1.22222 1.2222 1.22221 1.22218 1.22222 1.22224 1.22225 1.22223 
1.22221 2.23207 2.21765 2.25299 2.23242 2.267 2.27507 2.26736 2.23274 
2.21735 2.2539 2.2327 2.26774 2.2752 2.26839 2.27893 2.2808 2.27896 
2.28174 2.28186 2.28155 2.27905 2.28064 2.27832 2.26516 2.16751 2.19383 
2.25114 2.11837 2.13997 1.82177 1.50671 1.53549 1.92053 1.57332 1.62278 
1.35959 1.25398 1.26449 1.32129 1.241 1.2462 1.22209 1.22221 1.22221 
1.22299 1.22229 1.22229 1.22222 1.2222 1.22229 1.22182 1.22177 1.22182 
1.22186 1.22223 1.22181 1.22196 1.22189 1.22202 1.22176 1.2221 1.22176 
1.22224 1.22223 1.22229 1.22221 1.22224 1.22226 1.22235 1.2222 1.22233 
1.22221 1.22222 1.2222 2.2331 2.21706 2.2551 2.23341 2.26825 2.2746 
2.26755 2.23245 2.21553 2.25461 2.23235 2.26893 2.25327 2.26065 2.27392 
2.21762 2.23811 2.03071 1.68314 1.7551 2.13188 1.84564 1.93603 1.51687 
1.32349 1.36076 1.42126 1.27816 1.297 1.22737 1.22203 1.22159 1.2411 
1.22195 1.223 1.22186 1.22217 1.22201 1.22234 1.22234 1.22235 1.22226 
1.22229 1.22232 1.22234 1.22236 1.22228 1.22238 1.22239 1.22242 1.22213 
1.22188 1.22219 1.22179 1.22199 1.2218 1.22222 1.22193 1.22232 1.22187 
1.22193 1.2219 1.22234 1.22222 1.22227 1.22221 1.22219 1.2222 1.2222 
1.22228 1.22219 1.2222 1.22222 1.22216 2.23251 2.21157 2.25672 2.23726 
2.21204 2.01888 2.08999 2.23242 2.21726 2.14753 2.18812 1.87326 1.53074 
1.61211 1.66309 1.40523 1.46514 1.27112 1.22541 1.23127 1.32805 1.24169 
1.25694 1.22202 1.22207 1.2221 1.22207 1.22183 1.222 1.22215 1.22215 
1.22217 1.22193 1.222 1.22189 1.22216 1.22225 1.22218 1.22221 1.22226 
1.22217 1.22245 1.22242 1.22238 1.22217 1.22222 1.2222 1.22228 1.22244 
1.22221 1.22236 1.22202 1.22238 1.22197 1.22188 1.22201 1.22236 1.22221 
1.22235 1.22205 1.22194 1.22211 1.22209 1.22232 1.22204 1.2222 1.22221 
1.22223 1.22201 1.22228 1.22199 1.22224 1.22216 1.22226 2.0361 2.33106 
1.70612 1.82631 1.4302 1.27933 1.31011 1.57498 2.11969 1.33954 1.33803 
1.24299 1.22206 1.22227 1.22668 1.22228 1.22196 1.22202 1.22199 1.22199 
1.22225 1.22214 1.22228 1.22195 1.22195 1.2219 1.22194 1.22211 1.22201 
1.22223 1.22218 1.2223 1.22209 1.2221 1.2221 1.22229 1.22219 1.22222 
1.22226 1.22225 1.22227 1.22222 1.22223 1.22224 1.22224 1.22228 1.22223 
1.22224 1.22218 1.22222 1.22234 1.22231 1.22227 1.22215 1.22201 1.22214 
1.22216 1.22233 1.22213 1.22215 1.22213 1.22218 1.222 1.22223 1.22201 
1.22226 1.2222 1.22232 1.22207 1.22214 1.22212 1.22234 1.22222 1.22232 
1.22669 1.23532 1.2216 1.22323 1.22242 1.22229 1.22244 1.22286 1.22366 
1.22216 1.22261 1.22244 1.22223 1.22245 1.2222 1.22201 1.2221 1.22186 
1.22213 1.22193 1.2221 1.22183 1.22207 1.22207 1.22209 1.22217 1.22203 
1.22228 1.22204 1.22215 1.22224 1.22222 1.22218 1.2222 1.22227 1.22224 
1.22223 1.22215 1.22226 1.22227 1.22229 1.2222 1.22221 1.2222 1.22227 
1.22222 1.22226 1.2222 1.22222 1.2222 1.22218 1.22213 1.22224 1.22218 
1.22218 1.22213 1.22223 1.22214 1.22221 1.22207 1.22216 1.22208 1.22213 
1.22218 1.22213 1.2223 1.22232 1.22232 1.22217 1.22219 1.22219 1.22233 
1.22241 1.22232 1.2225 1.22253 1.22253 1.22245 1.22237 1.22203 1.22218 
1.22241 1.22223 1.22277 1.22252 1.22201 1.22202 1.22196 1.22195 1.22201 
1.22188 1.22218 1.22204 1.22215 1.22199 1.22217 1.22215 1.22216 1.22215 
1.22218 1.22221 1.22226 1.22217 1.2221 1.22233 1.22221 1.22224 1.22205 
1.22227 1.22229 1.2223 1.22226 1.22228 1.22221 1.22228 1.2222 1.22222 
1.22222 1.22224 1.2222 1.22222 1.22225 1.2222 1.22224 1.2222 1.22217 
1.22221 1.22213 1.22202 1.22217 1.2222 1.22219 1.2222 1.22218 1.22202 
1.22219 1.22216 1.2222 1.2221 1.22231 1.22256 1.22232 1.22204 1.22219 
1.222 1.22236 1.22262 1.2224 1.2226 1.22252 1.2224 1.22252 1.22197 
1.22207 1.22196 1.2224 1.22261 1.22226 1.22221 1.222 1.2223 1.22221 
1.22217 1.22215 1.22209 1.22217 1.22224 1.22213 1.2221 1.22225 1.22221 
1.22216 1.22231 1.22221 1.22218 1.22217 1.2221 1.22223 1.22227 1.22229 
1.22215 1.22214 1.22221 1.2223 1.22221 1.22221 1.22222 1.2222 1.22221 
1.22222 1.22222 1.22223 1.22219 1.22222 1.22221 1.22224 1.22218 1.22221 
1.22221 1.22222 1.22221 1.22219 1.22213 1.22218 1.2222 1.22224 1.22221 
1.22219 1.2222 1.22221 1.22201 1.22209 1.22207 1.22241 1.22254 1.22236 
1.22216 1.22212 1.22221 1.22227 1.22239 1.22221 2.22403 2.22395 2.21824 
2.23074 2.22387 2.24 2.24023 2.25014 2.24059 2.22379 2.21795 2.23091 
2.22378 2.24093 2.25092 2.24123 2.25737 2.25772 2.26416 2.25817 2.26892 
2.26923 2.27303 2.26955 2.25859 2.26498 2.259 2.26981 2.27343 2.27012 
2.22379 2.21791 2.23128 2.2239 2.24141 2.25156 2.24168 2.22395 2.21799 
2.2315 2.22396 2.24194 2.25187 2.24221 2.25927 2.26556 2.25953 2.27033 
2.2738 2.27059 2.25969 2.26611 2.25999 2.27089 2.27442 2.27119 2.27575 
2.27593 2.27803 2.27601 2.27947 2.27955 2.28069 2.27959 2.27606 2.27805 
2.27621 2.27959 2.28075 2.27961 2.28142 2.28147 2.28206 2.28159 2.28248 
2.28253 2.2829 2.28264 2.28168 2.28226 2.28166 2.28278 2.28305 2.28276 
2.27638 2.27823 2.27658 2.27975 2.28083 2.27975 2.27686 2.27861 2.27701 
2.27994 2.28086 2.27998 2.28178 2.28234 2.28166 2.28286 2.28315 2.28284 
2.28165 2.28227 2.28164 2.28266 2.28326 2.28282 2.2832 2.28325 2.28341 
2.28324 2.28351 2.28358 2.28357 2.28349 2.28336 2.28342 2.28333 2.28352 
2.2836 2.28355 2.28365 2.28373 2.2837 2.28366 2.28373 2.28372 2.284 
2.28399 2.28349 2.28394 2.28386 2.28079 2.26687 2.26737 2.28328 2.28349 
2.28346 2.28329 2.28375 2.28364 2.28312 2.28355 2.28338 2.28157 2.27029 
2.27163 2.28113 2.26815 2.26913 2.23504 2.17262 2.17696 2.24008 2.18223 
2.18825 2.09016 1.95286 1.96486 2.28415 2.28077 2.26716 2.26665 2.26521 
2.23316 2.16735 2.16581 2.23224 2.16722 2.16933 2.06907 1.925 1.92848 
2.15428 2.07172 1.92874 1.9226 1.89638 1.75095 1.58754 1.58037 1.73767 
1.58089 1.58314 1.46492 1.3686 1.36812 2.07646 1.93455 1.94272 1.74875 
1.58825 1.59537 1.77069 1.60476 1.61621 1.47864 1.37784 1.3836 1.46837 
1.37034 1.37343 1.3005 1.25952 1.26044 1.3058 1.26221 1.26439 1.23656 
1.22431 1.22466 1.54664 1.45862 1.36466 1.36385 1.33983 1.29765 1.2553 
1.25502 1.2997 1.2582 1.25737 1.23523 1.22473 1.22335 1.2468 1.23294 
1.22366 1.22351 1.22311 1.22175 1.22214 1.22236 1.22219 1.22237 1.22184 
1.2221 1.22207 1.22224 1.23583 1.2243 1.22356 1.22228 1.22296 1.22198 
1.22222 1.22258 1.22201 1.2224 1.22277 1.2219 1.22257 1.22235 1.2217 
1.22221 1.22204 1.22217 1.22275 1.22249 1.22166 1.22231 1.22209 1.22212 
1.2222 1.22227 1.22224 1.22222 1.22223 1.22223 1.22221 1.22225 1.22225 
1.22226 1.22225 1.22223 1.22224 1.22222 1.22222 1.22222 1.22223 1.22223 
1.22223 1.22222 1.22221 1.2222 1.22223 1.22221 1.22223 1.22221 1.22221 
1.22222 1.22216 1.22222 1.2223 1.22221 1.22225 1.22221 1.2221 1.22224 
1.22234 1.22225 1.2222 1.22222 1.22223 1.22223 1.22223 1.22223 1.22224 
1.22223 1.22222 1.22224 1.22222 1.22222 1.22222 1.22221 2.22383 2.21778 
2.23193 2.22377 2.2424 2.25257 2.24284 2.22373 2.21746 2.23218 2.22368 
2.2433 2.25314 2.24343 2.26029 2.26657 2.26056 2.27148 2.27475 2.27144 
2.26113 2.26708 2.26138 2.27172 2.27511 2.27202 2.22374 2.21745 2.23233 
2.22374 2.24386 2.25384 2.24396 2.22365 2.21752 2.23289 2.22372 2.24387 
2.25447 2.24469 2.26156 2.26782 2.26208 2.27188 2.27546 2.27251 2.26189 
2.2683 2.2622 2.2724 2.27525 2.27229 2.27738 2.27886 2.2774 2.2801 
2.28106 2.2804 2.27723 2.27942 2.27772 2.28 2.28132 2.2804 2.28141 
2.28234 2.28185 2.28227 2.28302 2.28236 2.28133 2.28175 2.28115 2.2817 
2.27536 2.27641 2.27726 2.27909 2.27737 2.28025 2.28059 2.27969 2.27762 
2.27832 2.27694 2.27965 2.27862 2.27843 2.2812 2.27755 2.27835 2.26178 
2.22436 2.23167 2.26832 2.23894 2.24604 2.18105 2.08646 2.10562 2.2819 
2.27306 2.27426 2.24707 2.195 2.20182 2.25492 2.20903 2.2165 2.12838 
2.01044 2.02879 2.10835 1.97862 1.99355 1.80217 1.6296 1.64516 1.84342 
1.66329 1.6837 1.51967 1.41197 1.42497 2.15318 2.04848 2.06736 1.89387 
1.70639 1.73173 1.94726 1.76143 1.79542 1.59626 1.47208 1.49069 1.5531 
1.43929 1.45509 1.34835 1.28533 1.29255 1.37183 1.30082 1.31032 1.25886 
1.2345 1.2373 1.49567 1.39123 1.40081 1.31482 1.26721 1.27056 1.32915 
1.27451 1.27939 1.24331 1.22711 1.22852 1.23912 1.22523 1.22603 1.22201 
1.22214 1.22205 1.22222 1.222 1.22193 1.22219 1.22214 1.22221 1.24973 
1.23023 1.23221 1.22262 1.22191 1.22194 1.22356 1.22198 1.22204 1.22232 
1.22209 1.22216 1.22222 1.22207 1.22208 1.22213 1.22216 1.22227 1.22221 
1.22218 1.22221 1.22207 1.22212 1.22233 1.22236 1.2226 1.22212 1.22244 
1.22269 1.22192 1.22221 1.22254 1.22216 1.22252 1.22268 1.22187 1.22279 
1.22253 1.22165 1.22239 1.22215 1.22204 1.22279 1.22259 1.22169 1.22241 
1.22221 1.22196 1.22216 1.22252 1.22222 1.22258 1.22256 1.22188 1.22217 
1.22249 1.22226 1.22264 1.22256 1.22187 1.22273 1.22266 1.22173 1.22247 
1.22232 1.22193 1.22267 1.22267 1.22182 1.22253 1.22237 1.2219 1.22206 
1.2222 1.22235 1.22224 1.22224 1.22218 1.22208 1.22211 1.22235 1.2222 
1.22222 1.2222 1.22222 1.22219 1.22223 1.22222 1.22222 1.22223 1.22222 
1.22224 1.22222 1.22224 1.22224 1.22224 1.22212 1.22212 1.22229 1.2222 
1.2222 1.22226 1.22216 1.22208 1.22221 1.22217 1.22226 1.22228 1.22222 
1.22224 1.22221 1.22223 1.22222 1.22223 1.22222 1.22219 1.2222 1.22222 
1.22224 1.22223 2.22348 2.21692 2.2333 2.22336 2.24458 2.25449 2.24475 
2.22329 2.21648 2.2329 2.22303 2.24543 2.25483 2.24502 2.26259 2.26804 
2.26238 2.27277 2.2751 2.27237 2.26246 2.26826 2.26296 2.27164 2.27491 
2.27192 2.22272 2.21637 2.23298 2.22249 2.24467 2.25529 2.24526 2.22189 
2.21474 2.23278 2.22106 2.24459 2.25397 2.24375 2.26215 2.26772 2.26179 
2.27205 2.26796 2.26878 2.26346 2.26787 2.26415 2.25796 2.22488 2.2354 
2.27676 2.27796 2.27695 2.2725 2.2523 2.25761 2.27454 2.26216 2.26586 
2.22851 2.16184 2.18049 2.20584 2.12349 2.14213 2.0021 1.83127 1.86882 
2.05868 1.90691 1.94357 1.71681 1.56039 1.58998 2.24661 2.19651 2.21141 
2.109 1.97883 2.01454 2.15571 2.04963 2.07988 1.89184 1.70153 1.74469 
1.80008 1.62489 1.66195 1.49107 1.38488 1.40526 1.54689 1.43056 1.45845 
1.34103 1.28195 1.29306 1.65163 1.51075 1.5337 1.40183 1.32134 1.33494 
1.44314 1.35032 1.36689 1.28666 1.24975 1.25614 1.27081 1.24063 1.24472 
1.22567 1.22214 1.22232 1.22974 1.22262 1.22321 1.22177 1.22227 1.22209 
1.30928 1.26365 1.27215 1.23667 1.22413 1.22564 1.24656 1.22791 1.23108 
1.22238 1.22186 1.22176 1.22163 1.22196 1.22195 1.22199 1.22218 1.22208 
1.22181 1.22203 1.22201 1.22209 1.22207 1.22212 1.22219 1.22227 1.22234 
1.22231 1.22216 1.22217 1.22232 1.22222 1.22227 1.22234 1.22226 1.22224 
1.22225 1.2222 1.22232 1.22207 1.2222 1.22236 1.22224 1.2222 1.22238 
1.22209 1.22223 1.22242 1.22229 1.2222 1.22214 1.22239 1.22231 1.22233 
1.22217 1.22218 1.22203 1.22236 1.22231 1.22231 1.22218 1.22227 1.22241 
1.22221 1.22227 1.22248 1.22218 1.22229 1.22248 1.22226 1.2223 1.22244 
1.22222 1.2224 1.22229 1.22257 1.22251 1.22187 1.22226 1.22238 1.22226 
1.22256 1.22252 1.22197 1.22262 1.2227 1.22185 1.22258 1.22243 1.22187 
1.22255 1.22264 1.22191 1.22259 1.22248 1.22181 1.22228 1.22228 1.22226 
1.22249 1.22259 1.22201 1.22234 1.2223 1.2223 1.22244 1.22254 1.22215 
1.22255 1.22261 1.22194 1.22259 1.2225 1.22184 1.2225 1.22257 1.22193 
1.22263 1.22257 1.22186 1.22223 1.2221 1.22217 1.22213 1.22221 1.22233 
1.22233 1.22215 1.22211 1.22212 1.2222 1.22234 1.22222 1.22222 1.2222 
1.22221 1.22221 1.2222 1.22224 1.22222 1.22221 1.22218 1.22217 1.22218 
1.22237 1.22216 1.22203 1.22209 1.22217 1.22233 1.22242 1.22226 1.22201 
1.22212 1.22211 1.22232 1.22223 1.22223 1.22221 1.22221 1.2222 1.22221 
1.22219 1.22221 1.22222 1.22221 1.2222 1.22218 2.22023 2.2133 2.23142 
2.21957 2.24548 2.25789 2.24813 2.21982 2.21124 2.23495 2.22048 2.24907 
2.24905 2.24556 2.26021 2.24348 2.24814 2.19635 2.10917 2.13573 2.22412 
2.16154 2.18332 2.05731 1.90138 1.94994 2.22367 2.21748 2.23728 2.23078 
2.23471 2.20001 2.21211 2.23824 2.22063 2.21932 2.23912 2.16978 2.07239 
2.10147 2.12026 1.9958 2.0382 1.81702 1.63567 1.68238 1.9257 1.73126 
1.7869 1.56904 1.44613 1.47985 1.97785 1.79627 1.84877 1.62044 1.48733 
1.51732 1.70831 1.55186 1.59032 1.43356 1.34243 1.3644 1.38179 1.30662 
1.32285 1.26141 1.2353 1.24026 1.28217 1.24625 1.25368 1.22775 1.2224 
1.22315 1.49789 1.38839 1.41465 1.30988 1.26303 1.27381 1.35013 1.28618 
1.30041 1.24852 1.22867 1.2327 1.23602 1.22426 1.22594 1.22186 1.22211 
1.22216 1.22258 1.22212 1.222 1.22208 1.222 1.22212 1.22398 1.22176 
1.22191 1.22204 1.22193 1.22191 1.22205 1.22195 1.22198 1.22191 1.222 
1.2219 1.22186 1.22215 1.22211 1.22215 1.22203 1.2221 1.22199 1.22217 
1.2222 1.22216 1.22206 1.22206 1.22208 1.22189 1.22187 1.22187 1.2221 
1.22196 1.22205 1.22188 1.22183 1.22192 1.22221 1.22207 1.2221 1.22209 
1.22223 1.22217 1.22213 1.22207 1.22212 1.22204 1.22215 1.22221 1.22217 
1.22214 1.22215 1.22214 1.22209 1.22221 1.22227 1.22222 1.22222 1.22211 
1.22216 1.22205 1.22221 1.2222 1.22222 1.22233 1.22249 1.22229 1.22228 
1.22242 1.2222 1.2223 1.22239 1.22232 1.22228 1.22239 1.22222 1.22212 
1.22218 1.22203 1.22216 1.22229 1.22217 1.22216 1.22219 1.2221 1.22216 
1.22236 1.22212 1.22219 1.22225 1.22232 1.2223 1.22232 1.22207 1.22209 
1.22217 1.22223 1.22228 1.2222 1.22238 1.22235 1.22233 1.22246 1.22257 
1.22224 1.22239 1.22237 1.22236 1.22241 1.22256 1.2223 1.22253 1.22254 
1.22199 1.22259 1.22255 1.22187 1.22256 1.22255 1.22202 1.22258 1.22255 
1.22193 1.22238 1.22238 1.22239 1.2224 1.22258 1.22236 1.22236 1.22238 
1.22238 1.22241 1.22255 1.22238 1.22261 1.22254 1.2221 1.22257 1.22259 
1.22198 1.22263 1.22259 1.22212 1.22258 1.22257 1.22205 1.22245 1.22234 
1.22195 1.22216 1.22211 1.22224 1.22248 1.22235 1.22197 1.22216 1.2221 
1.22218 1.22216 1.2222 1.22225 1.2222 1.2222 1.22221 1.22214 1.22222 
1.22227 1.22223 1.22223 1.2222 1.22253 1.22241 1.22194 1.22224 1.22211 
1.22215 1.2225 1.22243 1.22192 1.2223 1.22213 1.2221 1.22211 1.2222 
1.2223 1.22219 1.2222 1.22218 1.22212 1.22217 1.22233 1.22221 1.22222 
1.22222 2.21199 2.28678 2.12568 2.14238 2.0085 1.84021 1.89134 2.05834 
2.34232 1.93953 1.95731 1.77703 1.59534 1.65738 1.65845 1.51483 1.55348 
1.4002 1.31766 1.33782 1.46581 1.36281 1.38994 1.29295 1.25179 1.26041 
1.83702 2.25661 1.70365 1.69726 1.54508 1.41178 1.43911 1.54242 1.90406 
1.44913 1.3912 1.3489 1.28272 1.27757 1.32895 1.27054 1.28034 1.23839 
1.22501 1.2266 1.24657 1.22789 1.22815 1.22225 1.2221 1.22209 1.26743 
1.23799 1.2442 1.22475 1.22197 1.2222 1.22979 1.22279 1.22365 1.22221 
1.2222 1.22226 1.2222 1.22217 1.22218 1.22204 1.22192 1.22207 1.2221 
1.22214 1.22215 1.22199 1.22186 1.22198 1.2219 1.22228 1.22218 1.22232 
1.22211 1.22213 1.22221 1.22226 1.22223 1.22223 1.22205 1.22205 1.22206 
1.22212 1.22213 1.22195 1.22183 1.22191 1.22202 1.22204 1.22209 1.22194 
1.22187 1.22185 1.222 1.22195 1.22181 1.22201 1.22224 1.22218 1.22198 
1.22205 1.22187 1.22211 1.22218 1.22224 1.22211 1.22204 1.22209 1.22226 
1.22216 1.22218 1.22213 1.22211 1.22207 1.22223 1.22216 1.22216 1.22202 
1.22217 1.22199 1.22214 1.22211 1.2222 1.22207 1.22226 1.2221 1.22211 
1.22208 1.22214 1.2222 1.22215 1.22211 1.22216 1.22218 1.22216 1.22229 
1.22213 1.22217 1.22213 1.22223 1.22221 1.22213 1.22221 1.22222 1.22212 
1.22215 1.22235 1.22213 1.22224 1.2223 1.22211 1.22213 1.22231 1.22211 
1.22206 1.22219 1.22213 1.22217 1.22216 1.2222 1.22209 1.22221 1.2221 
1.22209 1.22217 1.22216 1.22221 1.22235 1.2221 1.22212 1.22227 1.22215 
1.22217 1.22233 1.22213 1.22215 1.22225 1.22222 1.22212 1.22219 1.22211 
1.22208 1.22221 1.22222 1.22213 1.22218 1.22212 1.22213 1.22225 1.22228 
1.2224 1.22231 1.22242 1.2225 1.2224 1.22216 1.22236 1.22222 1.22241 
1.22248 1.22234 1.2226 1.22262 1.22217 1.2226 1.22258 1.22211 1.2226 
1.22263 1.22223 1.2226 1.22259 1.22213 1.22208 1.22224 1.2222 1.22233 
1.22243 1.22224 1.22211 1.22213 1.22224 1.22224 1.22236 1.22215 1.22257 
1.22259 1.22226 1.22259 1.22261 1.22215 1.2225 1.22258 1.22223 1.2226 
1.22261 1.22217 1.22254 1.22247 1.22198 1.22237 1.2222 1.22208 1.22259 
1.22249 1.22203 1.22242 1.22227 1.22206 1.22212 1.22213 1.22231 1.22222 
1.22224 1.22221 1.22213 1.22212 1.22228 1.2222 1.22223 1.22223 1.22262 
1.22254 1.22209 1.22246 1.22231 1.22208 1.22263 1.2226 1.22212 1.22251 
1.22237 1.2221 1.22217 1.22214 1.22227 1.2222 1.22222 1.22225 1.22223 
1.22215 1.22225 1.22218 1.22219 1.22227 1.27596 1.25428 1.25558 1.2295 
1.23369 1.22532 1.22285 1.22079 1.21834 1.22069 1.22315 1.22185 1.22266 
1.22263 1.22159 1.22209 1.22253 1.22231 1.22215 1.22209 1.22205 1.22199 
1.22233 1.22228 1.22226 1.22218 1.22128 1.22033 1.2214 1.22306 1.22186 
1.22246 1.22263 1.22128 1.22112 1.22169 1.22318 1.22188 1.22223 1.2226 
1.22218 1.22197 1.22219 1.22229 1.2223 1.22233 1.22228 1.22205 1.22212 
1.22224 1.2222 1.22237 1.22229 1.22223 1.22231 1.22215 1.22203 1.222 
1.22227 1.2221 1.22224 1.22211 1.22202 1.222 1.22193 1.22194 1.22198 
1.22195 1.222 1.22187 1.22181 1.22188 1.22188 1.22205 1.22215 1.22199 
1.22215 1.22204 1.2221 1.22208 1.22196 1.22197 1.22205 1.22203 1.22204 
1.22197 1.22193 1.2219 1.22181 1.22194 1.22191 1.22216 1.22219 1.22209 
1.22197 1.22204 1.22204 1.22217 1.22214 1.22209 1.22214 1.22225 1.22222 
1.2221 1.22213 1.2221 1.22212 1.22217 1.2222 1.22221 1.22217 1.22215 
1.22231 1.2221 1.22213 1.22215 1.22227 1.22233 1.22222 1.22219 1.2221 
1.22219 1.2222 1.22236 1.22205 1.22219 1.22217 1.22231 1.22211 1.22214 
1.22206 1.22224 1.2222 1.22228 1.22212 1.22207 1.22219 1.22232 1.22219 
1.22214 1.22213 1.22227 1.22224 1.22231 1.22232 1.22208 1.22215 1.22225 
1.2221 1.22215 1.22227 1.22218 1.22214 1.22225 1.2221 1.22215 1.22228 
1.22221 1.22213 1.22222 1.2222 1.22214 1.22219 1.22212 1.22214 1.22227 
1.22219 1.22216 1.22223 1.22212 1.22214 1.22226 1.22217 1.22213 1.2223 
1.22222 1.22214 1.22221 1.2222 1.2221 1.22226 1.22223 1.22217 1.22222 