# vtk DataFile Version 3.0
vtk output
ASCII
DATASET UNSTRUCTURED_GRID
FIELD FieldData 1
avtOriginalBounds 1 6 double
-0.75 0.75 -0.5 0.5 0 0 
POINTS 825 double
0.75 -0.232051 0 0.75 -0.110042 0 0.552083 -0.154701 0 
0.55 -0.285641 0 0.75 0.011966 0 0.554167 -0.0237605 0 
0.75 0.133974 0 0.55625 0.10718 0 0.75 0.255983 0 
0.558333 0.23812 0 0.75 0.377992 0 0.560417 0.36906 0 
0.75 0.5 0 0.5625 0.5 0 0.354167 -0.199359 0 
0.35 -0.339231 0 0.358333 -0.0594871 0 0.3625 0.0803847 0 
0.366667 0.220256 0 0.370833 0.360128 0 0.375 0.5 0 
0.15625 -0.244017 0 0.15 -0.39282 0 0.1625 -0.0952136 0 
0.16875 0.0535898 0 0.175 0.202393 0 0.18125 0.351197 0 
0.1875 0.5 0 -0.0416667 -0.288675 0 -0.05 -0.44641 0 
-0.0333333 -0.13094 0 -0.025 0.0267949 0 -0.0166667 0.18453 0 
-0.00833333 0.342265 0 0 0.5 0 -0.239583 -0.333333 0 
-0.25 -0.5 0 -0.229167 -0.166667 0 -0.21875 6.05576e-18 0 
-0.208333 0.166667 0 -0.197917 0.333333 0 -0.1875 0.5 0 
-0.409722 -0.333333 0 -0.416667 -0.5 0 -0.402778 -0.166667 0 
-0.395833 6.05576e-18 0 -0.388889 0.166667 0 -0.381944 0.333333 0 
-0.375 0.5 0 -0.579861 -0.333333 0 -0.583333 -0.5 0 
-0.576389 -0.166667 0 -0.572917 6.05576e-18 0 -0.569444 0.166667 0 
-0.565972 0.333333 0 -0.5625 0.5 0 -0.75 -0.333333 0 
-0.75 -0.5 0 -0.75 -0.166667 0 -0.75 0 0 
-0.75 0.166667 0 -0.75 0.333333 0 -0.75 0.5 0 
0.75 -0.171047 0 0.650521 -0.195609 0 0.65 -0.258846 0 
0.651042 -0.132372 0 0.551042 -0.220171 0 0.75 -0.0490382 0 
0.651563 -0.0691344 0 0.652083 -0.00589727 0 0.553125 -0.0892306 0 
0.75 0.0729703 0 0.652604 0.0573399 0 0.653125 0.120577 0 
0.555208 0.0417095 0 0.75 0.194979 0 0.653646 0.183814 0 
0.654167 0.247051 0 0.557292 0.17265 0 0.75 0.316987 0 
0.654687 0.310289 0 0.655208 0.373526 0 0.559375 0.30359 0 
0.75 0.438996 0 0.655729 0.436763 0 0.65625 0.5 0 
0.561458 0.43453 0 0.451562 -0.244733 0 0.45 -0.312436 0 
0.453125 -0.17703 0 0.352083 -0.269295 0 0.454688 -0.109327 0 
0.45625 -0.0416238 0 0.35625 -0.129423 0 0.457812 0.0260792 0 
0.459375 0.0937821 0 0.360417 0.0104488 0 0.460937 0.161485 0 
0.4625 0.229188 0 0.364583 0.150321 0 0.464062 0.296891 0 
0.465625 0.364594 0 0.36875 0.290192 0 0.467187 0.432297 0 
0.46875 0.5 0 0.372917 0.430064 0 0.252604 -0.293857 0 
0.25 -0.366026 0 0.255208 -0.221688 0 0.153125 -0.318419 0 
0.257812 -0.149519 0 0.260417 -0.0773503 0 0.159375 -0.169615 0 
0.263021 -0.00518154 0 0.265625 0.0669872 0 0.165625 -0.0208119 0 
0.268229 0.139156 0 0.270833 0.211325 0 0.171875 0.127992 0 
0.273437 0.283494 0 0.276042 0.355662 0 0.178125 0.276795 0 
0.278646 0.427831 0 0.28125 0.5 0 0.184375 0.425598 0 
0.0536458 -0.342981 0 0.05 -0.419615 0 0.0572917 -0.266346 0 
-0.0458333 -0.367543 0 0.0609375 -0.189711 0 0.0645833 -0.113077 0 
-0.0375 -0.209808 0 0.0682292 -0.0364423 0 0.071875 0.0401924 0 
-0.0291667 -0.0520726 0 0.0755208 0.116827 0 0.0791667 0.193462 0 
-0.0208333 0.105662 0 0.0828125 0.270096 0 0.0864583 0.346731 0 
-0.0125 0.263397 0 0.0901042 0.423365 0 0.09375 0.5 0 
-0.00416667 0.421132 0 -0.145313 -0.392105 0 -0.15 -0.473205 0 
-0.140625 -0.311004 0 -0.244792 -0.416667 0 -0.135937 -0.229904 0 
-0.13125 -0.148803 0 -0.234375 -0.25 0 -0.126562 -0.067703 0 
-0.121875 0.0133975 0 -0.223958 -0.0833333 0 -0.117187 0.0944979 0 
-0.1125 0.175598 0 -0.213542 0.0833333 0 -0.107812 0.256699 0 
-0.103125 0.337799 0 -0.203125 0.25 0 -0.0984375 0.4189 0 
-0.09375 0.5 0 -0.192708 0.416667 0 -0.328993 -0.416667 0 
-0.333333 -0.5 0 -0.324653 -0.333333 0 -0.413194 -0.416667 0 
-0.320312 -0.25 0 -0.315972 -0.166667 0 -0.40625 -0.25 0 
-0.311632 -0.0833333 0 -0.307292 6.05576e-18 0 -0.399306 -0.0833333 0 
-0.302951 0.0833333 0 -0.298611 0.166667 0 -0.392361 0.0833333 0 
-0.294271 0.25 0 -0.289931 0.333333 0 -0.385417 0.25 0 
-0.28559 0.416667 0 -0.28125 0.5 0 -0.378472 0.416667 0 
-0.497396 -0.416667 0 -0.5 -0.5 0 -0.494792 -0.333333 0 
-0.581597 -0.416667 0 -0.492188 -0.25 0 -0.489583 -0.166667 0 
-0.578125 -0.25 0 -0.486979 -0.0833333 0 -0.484375 6.05576e-18 0 
-0.574653 -0.0833333 0 -0.481771 0.0833333 0 -0.479167 0.166667 0 
-0.571181 0.0833333 0 -0.476562 0.25 0 -0.473958 0.333333 0 
-0.567708 0.25 0 -0.471354 0.416667 0 -0.46875 0.5 0 
-0.564236 0.416667 0 -0.665799 -0.416667 0 -0.666667 -0.5 0 
-0.664931 -0.333333 0 -0.75 -0.416667 0 -0.664062 -0.25 0 
-0.663194 -0.166667 0 -0.75 -0.25 0 -0.662326 -0.0833333 0 
-0.661458 3.02788e-18 0 -0.75 -0.0833333 0 -0.66059 0.0833333 0 
-0.659722 0.166667 0 -0.75 0.0833333 0 -0.658854 0.25 0 
-0.657986 0.333333 0 -0.75 0.25 0 -0.657118 0.416667 0 
-0.65625 0.5 0 -0.75 0.416667 0 0.75 -0.201549 0 
0.70013 -0.214388 0 0.7 -0.245448 0 0.70026 -0.183328 0 
0.65026 -0.227227 0 0.75 -0.140545 0 0.700391 -0.152267 0 
0.700521 -0.121207 0 0.650781 -0.16399 0 0.600391 -0.240067 0 
0.6 -0.272243 0 0.600781 -0.20789 0 0.550521 -0.252906 0 
0.601172 -0.175713 0 0.601562 -0.143536 0 0.551562 -0.187436 0 
0.75 -0.0795404 0 0.700651 -0.0901467 0 0.700781 -0.0590863 0 
0.651302 -0.100753 0 0.75 -0.0185361 0 0.700911 -0.028026 0 
0.701042 0.00303437 0 0.651823 -0.0375158 0 0.601953 -0.111359 0 
0.602344 -0.0791825 0 0.552604 -0.121966 0 0.602734 -0.0470057 0 
0.603125 -0.0148289 0 0.553646 -0.0564956 0 0.75 0.0424681 0 
0.701172 0.0340947 0 0.701302 0.0651551 0 0.652344 0.0257213 0 
0.75 0.103472 0 0.701432 0.0962154 0 0.701562 0.127276 0 
0.652865 0.0889585 0 0.603516 0.0173479 0 0.603906 0.0495247 0 
0.554688 0.0089745 0 0.604297 0.0817015 0 0.604687 0.113878 0 
0.555729 0.0744446 0 0.75 0.164477 0 0.701693 0.158336 0 
0.701823 0.189396 0 0.653385 0.152196 0 0.75 0.225481 0 
0.701953 0.220457 0 0.702083 0.251517 0 0.653906 0.215433 0 
0.605078 0.146055 0 0.605469 0.178232 0 0.556771 0.139915 0 
0.605859 0.210409 0 0.60625 0.242586 0 0.557812 0.205385 0 
0.75 0.286485 0 0.702214 0.282578 0 0.702344 0.313638 0 
0.654427 0.27867 0 0.75 0.347489 0 0.702474 0.344698 0 
0.702604 0.375759 0 0.654948 0.341907 0 0.606641 0.274762 0 
0.607031 0.306939 0 0.558854 0.270855 0 0.607422 0.339116 0 
0.607813 0.371293 0 0.559896 0.336325 0 0.75 0.408494 0 
0.702734 0.406819 0 0.702865 0.437879 0 0.655469 0.405144 0 
0.75 0.469498 0 0.702995 0.46894 0 0.703125 0.5 0 
0.65599 0.468381 0 0.608203 0.40347 0 0.608594 0.435646 0 
0.560938 0.401795 0 0.608984 0.467823 0 0.609375 0.5 0 
0.561979 0.467265 0 0.500651 -0.265745 0 0.5 -0.299038 0 
0.501302 -0.232452 0 0.450781 -0.278584 0 0.501953 -0.199158 0 
0.502604 -0.165865 0 0.452344 -0.210881 0 0.400911 -0.291423 0 
0.4 -0.325833 0 0.401823 -0.257014 0 0.351042 -0.304263 0 
0.402734 -0.222604 0 0.403646 -0.188194 0 0.353125 -0.234327 0 
0.503255 -0.132572 0 0.503906 -0.0992787 0 0.453906 -0.143178 0 
0.504557 -0.0659854 0 0.505208 -0.0326922 0 0.455469 -0.0754753 0 
0.404557 -0.153785 0 0.405469 -0.119375 0 0.355208 -0.164391 0 
0.40638 -0.0849651 0 0.407292 -0.0505554 0 0.357292 -0.094455 0 
0.505859 0.000601094 0 0.50651 0.0338944 0 0.457031 -0.00777231 0 
0.507161 0.0671876 0 0.507812 0.100481 0 0.458594 0.0599307 0 
0.408203 -0.0161457 0 0.409115 0.018264 0 0.359375 -0.0245191 0 
0.410026 0.0526737 0 0.410937 0.0870834 0 0.361458 0.0454168 0 
0.508464 0.133774 0 0.509115 0.167067 0 0.460156 0.127634 0 
0.509766 0.200361 0 0.510417 0.233654 0 0.461719 0.195337 0 
0.411849 0.121493 0 0.41276 0.155903 0 0.363542 0.115353 0 
0.413672 0.190313 0 0.414583 0.224722 0 0.365625 0.185289 0 
0.511068 0.266947 0 0.511719 0.30024 0 0.463281 0.26304 0 
0.51237 0.333534 0 0.513021 0.366827 0 0.464844 0.330743 0 
0.415495 0.259132 0 0.416406 0.293542 0 0.367708 0.255224 0 
0.417318 0.327951 0 0.418229 0.362361 0 0.369792 0.32516 0 
0.513672 0.40012 0 0.514323 0.433413 0 0.466406 0.398446 0 
0.514974 0.466707 0 0.515625 0.5 0 0.467969 0.466149 0 
0.419141 0.396771 0 0.420052 0.431181 0 0.371875 0.395096 0 
0.420964 0.46559 0 0.421875 0.5 0 0.373958 0.465032 0 
0.301172 -0.317102 0 0.3 -0.352628 0 0.302344 -0.281576 0 
0.251302 -0.329941 0 0.303516 -0.24605 0 0.304687 -0.210523 0 
0.253906 -0.257772 0 0.201432 -0.34278 0 0.2 -0.379423 0 
0.202865 -0.306138 0 0.151562 -0.35562 0 0.204297 -0.269495 0 
0.205729 -0.232852 0 0.154687 -0.281218 0 0.305859 -0.174997 0 
0.307031 -0.139471 0 0.25651 -0.185604 0 0.308203 -0.103945 0 
0.309375 -0.0684187 0 0.259115 -0.113435 0 0.207161 -0.19621 0 
0.208594 -0.159567 0 0.157812 -0.206816 0 0.210026 -0.122925 0 
0.211458 -0.086282 0 0.160937 -0.132414 0 0.310547 -0.0328925 0 
0.311719 0.00263364 0 0.261719 -0.0412659 0 0.312891 0.0381598 0 
0.314062 0.073686 0 0.264323 0.0309029 0 0.212891 -0.0496393 0 
0.214323 -0.0129967 0 0.164062 -0.0580127 0 0.215755 0.0236459 0 
0.217187 0.0602885 0 0.167187 0.016389 0 0.315234 0.109212 0 
0.316406 0.144738 0 0.266927 0.103072 0 0.317578 0.180264 0 
0.31875 0.215791 0 0.269531 0.17524 0 0.21862 0.0969311 0 
0.220052 0.133574 0 0.170312 0.0907907 0 0.221484 0.170216 0 
0.222917 0.206859 0 0.173438 0.165192 0 0.319922 0.251317 0 
0.321094 0.286843 0 0.272135 0.247409 0 0.322266 0.322369 0 
0.323437 0.357895 0 0.27474 0.319578 0 0.224349 0.243502 0 
0.225781 0.280144 0 0.176563 0.239594 0 0.227214 0.316787 0 
0.228646 0.35343 0 0.179688 0.313996 0 0.324609 0.393421 0 
0.325781 0.428948 0 0.277344 0.391747 0 0.326953 0.464474 0 
0.328125 0.5 0 0.279948 0.463916 0 0.230078 0.390072 0 
0.23151 0.426715 0 0.182813 0.388397 0 0.232943 0.463357 0 
0.234375 0.5 0 0.185938 0.462799 0 0.101693 -0.368459 0 
0.1 -0.406218 0 0.103385 -0.3307 0 0.0518229 -0.381298 0 
0.105078 -0.292941 0 0.106771 -0.255182 0 0.0554687 -0.304663 0 
0.00195312 -0.394137 0 -2.08167e-17 -0.433013 0 0.00390625 -0.355262 0 
-0.0479167 -0.406976 0 0.00585937 -0.316386 0 0.0078125 -0.277511 0 
-0.04375 -0.328109 0 0.108464 -0.217422 0 0.110156 -0.179663 0 
0.0591146 -0.228029 0 0.111849 -0.141904 0 0.113542 -0.104145 0 
0.0627604 -0.151394 0 0.00976562 -0.238635 0 0.0117187 -0.19976 0 
-0.0395833 -0.249241 0 0.0136719 -0.160884 0 0.015625 -0.122008 0 
-0.0354167 -0.170374 0 0.115234 -0.0663862 0 0.116927 -0.0286271 0 
0.0664062 -0.0747596 0 0.11862 0.009132 0 0.120312 0.0468911 0 
[...]
POINT_DATA 825
SCALARS density_aux double
LOOKUP_TABLE default
2.21628 2.25129 2.25176 2.21412 2.2736 2.24078 2.22942 1.78627 1.73845 
1.31164 1.29064 1.22132 1.22177 1.22266 2.24564 2.21197 1.88082 1.34178 
1.22252 1.22171 1.22212 2.00857 2.23317 1.40133 1.2252 1.22239 1.22186 
1.22232 1.50263 2.32816 1.23582 1.22211 1.22241 1.22209 1.22192 1.24378 
1.49506 1.22182 1.22211 1.2223 1.22225 1.22168 1.22159 1.22471 1.2221 
1.22226 1.22212 1.22229 1.22196 1.22204 1.22289 1.22206 1.22214 1.22219 
1.22228 1.22216 1.22221 1.22221 1.22221 1.22221 1.22221 1.22221 1.22221 
2.23017 2.23028 2.21544 2.25186 2.2298 2.26577 2.26576 2.27395 2.26869 
2.27613 2.23636 2.08559 2.09938 2.06468 1.766 1.4766 1.48931 1.44347 
1.3073 1.23626 1.23856 1.23264 1.22186 1.22287 1.22205 2.22932 2.21256 
2.25693 2.23484 2.24589 2.12128 2.14874 1.82508 1.51022 1.54295 1.32296 
1.24191 1.24761 1.2218 1.22166 1.22193 1.22198 1.22221 1.22195 2.23575 
2.21813 2.17867 2.20099 1.94546 1.59013 1.65426 1.36764 1.25669 1.26976 
1.22342 1.22238 1.22237 1.22191 1.22179 1.22198 1.22197 1.22228 1.22202 
2.05092 2.32904 1.72797 1.83417 1.44872 1.28776 1.31508 1.22886 1.22198 
1.22147 1.22239 1.22243 1.2224 1.22213 1.22195 1.2222 1.22198 1.22218 
1.22191 1.57612 2.12471 1.34053 1.33723 1.24334 1.22183 1.22193 1.22194 
1.22207 1.22212 1.22232 1.22238 1.22218 1.22224 1.22222 1.2223 1.22193 
1.2217 1.22205 1.22645 1.23527 1.22144 1.22321 1.22204 1.22185 1.22202 
1.22212 1.22222 1.22201 1.22211 1.22223 1.22218 1.22236 1.22223 1.22235 
1.22215 1.2218 1.22215 1.22271 1.22392 1.22182 1.22225 1.22199 1.22219 
1.22216 1.22208 1.22218 1.22226 1.22226 1.22211 1.22224 1.22221 1.22234 
1.22212 1.2222 1.22219 1.2223 1.22207 1.2222 1.22208 1.22221 1.22233 
1.22205 1.22221 1.22228 1.2222 1.22221 1.22218 1.22223 1.22221 1.22214 
1.2222 1.22221 1.22233 1.22213 1.22221 2.222 2.2217 2.21584 2.23019 
2.22131 2.24108 2.24145 2.25151 2.24161 2.22088 2.21497 2.22995 2.22044 
2.24176 2.25213 2.24188 2.25928 2.2598 2.26593 2.26005 2.27039 2.2703 
2.27444 2.27145 2.25973 2.26742 2.26167 2.27182 2.26515 2.26468 2.27694 
2.27548 2.26589 2.26539 2.2645 2.23671 2.17754 2.17837 2.2383 2.18262 
2.18827 2.09157 1.95547 1.966 2.16434 2.08681 1.95028 1.94797 1.9186 
1.77529 1.60916 1.60369 1.77396 1.6096 1.61843 1.48511 1.38451 1.38657 
1.56871 1.4753 1.37789 1.37808 1.35337 1.30714 1.26136 1.26141 1.31137 
1.26527 1.26546 1.23895 1.22618 1.22502 1.25275 1.23624 1.22483 1.22484 
1.22414 1.22187 1.22161 1.22213 1.22231 1.22228 1.22177 1.22225 1.22153 
1.22228 2.21949 2.21357 2.22992 2.21871 2.2412 2.25395 2.24364 2.21844 
2.21066 2.23124 2.21919 2.24737 2.25559 2.24805 2.26382 2.26347 2.26056 
2.24352 2.19518 2.2024 2.24676 2.20992 2.21698 2.13386 2.01815 2.04101 
2.10956 1.98026 1.99753 1.80322 1.6315 1.6482 1.85106 1.66913 1.69374 
1.5247 1.4153 1.43021 1.49848 1.39345 1.40302 1.31686 1.26923 1.27219 
1.33132 1.2765 1.28195 1.24445 1.22755 1.22901 1.2409 1.22624 1.22611 
1.22236 1.22273 1.22187 1.22255 1.22239 1.22179 1.22244 1.22265 1.22193 
1.22264 1.22239 1.22166 1.22196 1.22199 1.22249 1.22274 1.22245 1.22169 
1.2219 1.22228 1.22249 2.22115 2.21651 2.23717 2.22777 2.24224 2.22219 
2.22527 2.23705 2.21917 2.22639 2.24222 2.18998 2.10723 2.12607 2.1646 
2.0641 2.0858 1.91298 1.72156 1.75458 1.97765 1.79488 1.83638 1.6208 
1.48956 1.51334 1.56489 1.44761 1.46738 1.3539 1.28886 1.29746 1.38342 
1.3078 1.31985 1.26275 1.23627 1.23972 1.25164 1.231 1.23339 1.22295 
1.22198 1.222 1.22414 1.22206 1.22219 1.22235 1.22223 1.22226 1.22238 
1.22247 1.22216 1.22239 1.22266 1.22194 1.22235 1.22249 1.2223 1.22246 
1.22264 1.22197 1.22272 1.22242 1.22173 1.22211 1.22229 1.22219 1.22262 
1.22244 1.22182 1.22233 1.2221 1.22197 2.2242 2.27741 2.14413 2.1563 
2.03378 1.87462 1.9102 2.07004 2.34541 1.95151 1.96585 1.79119 1.60988 
1.66556 1.68994 1.5398 1.57203 1.42299 1.33455 1.35231 1.4785 1.37355 
1.39615 1.29955 1.25614 1.26382 1.278 1.24401 1.24941 1.22669 1.22228 
1.22242 1.23202 1.22289 1.22382 1.22162 1.22224 1.22202 1.22227 1.2223 
1.22238 1.22236 1.22227 1.22238 1.22229 1.22224 1.22216 1.22239 1.22231 
1.22243 1.2223 1.22255 1.22236 1.22255 1.22258 1.22202 1.22228 1.22261 
1.22242 1.22265 1.22256 1.22206 1.22255 1.2225 1.22196 1.22252 1.22212 
1.22191 1.22253 1.22251 1.22208 1.22251 1.22238 1.22193 1.84215 2.26313 
1.70785 1.69906 1.5491 1.41543 1.44014 1.54196 1.90553 1.44846 1.39044 
1.3486 1.28256 1.2769 1.33192 1.27273 1.28106 1.2395 1.22512 1.22658 
1.24642 1.22771 1.2278 1.22194 1.22161 1.22171 1.22161 1.22189 1.22174 
1.22204 1.22207 1.22214 1.2218 1.22212 1.22181 1.22216 1.22204 1.22217 
1.22213 1.22218 1.22203 1.2223 1.22232 1.22238 1.22209 1.22207 1.22208 
1.22214 1.2223 1.22227 1.22234 1.22255 1.22251 1.22266 1.2226 1.22211 
1.2224 1.22251 1.22245 1.22266 1.2226 1.22222 1.22253 1.22256 1.22217 
1.22251 1.22267 1.22201 1.22253 1.22265 1.22222 1.22255 1.22282 1.22195 
1.27588 1.25447 1.25539 1.22935 1.23335 1.22511 1.22275 1.22082 1.21829 
1.2208 1.22324 1.22186 1.2224 1.22245 1.22138 1.22178 1.22223 1.22195 
1.2216 1.22162 1.22173 1.22165 1.22201 1.22185 1.22188 1.2217 1.22194 
1.22223 1.22212 1.22214 1.22207 1.22209 1.22212 1.22211 1.22224 1.22215 
1.22215 1.22211 1.22217 1.22198 1.22217 1.22201 1.22225 1.22225 1.22218 
1.22202 1.22219 1.22198 1.22213 1.22225 1.22232 1.22247 1.2223 1.22263 
1.22255 1.2223 1.22223 1.22244 1.22219 1.22253 1.22257 1.22231 1.22255 
1.22273 1.22227 1.22267 1.2229 1.22194 1.22261 1.22271 1.2223 1.22291 
1.22288 1.22198 1.22129 1.22041 1.22136 1.223 1.22167 1.22214 1.2223 
1.22118 1.22137 1.22146 1.22317 1.22157 1.22194 1.22222 1.22183 1.22155 
1.22179 1.22196 1.2222 1.22207 1.22184 1.22169 1.22165 1.22218 1.22223 
1.22236 1.22208 1.22202 1.22216 1.22223 1.22212 1.22214 1.22202 1.22212 
1.22213 1.22222 1.22207 1.22208 1.22214 1.22215 1.22223 1.22199 1.22203 
1.22224 1.22214 1.22221 1.22229 1.22203 1.22205 1.22226 1.22219 1.22229 
1.22211 1.22236 1.22261 1.22232 1.22214 1.22212 1.22204 1.22226 1.22256 
1.22233 1.22266 1.2227 1.22228 1.22306 1.22299 1.222 1.22268 1.22281 
1.22224 1.22311 1.22309 1.22211 1.22131 1.22144 1.22145 1.22297 1.22161 
1.22166 1.22223 1.22089 1.2219 1.22167 1.22221 1.22171 1.2214 1.22221 
1.22197 1.22204 1.22185 1.22214 1.22215 1.22231 1.22229 1.22224 1.22221 
1.22192 1.2222 1.22221 1.22212 1.22219 1.22222 1.22213 1.22213 1.22208 
1.22224 1.22212 1.22221 1.22214 1.22222 1.22221 1.22211 1.22214 1.22226 
1.22213 1.2221 1.22229 1.22204 1.22211 1.22221 1.22218 1.22209 1.22221 
1.22208 1.22205 1.22208 1.22216 1.22241 1.22228 1.22213 1.22208 1.22221 
1.22204 1.22231 1.22221 1.22272 1.22294 1.22224 1.22316 1.22306 1.2222 
1.22277 1.22297 1.22221 1.22306 1.22319 1.22221 
FIELD FieldData 1
exact_rho_aux 1 825 double
2.28132 2.28132 2.28132 2.28132 2.28132 2.28132 2.28132 1.22221 1.22221 
1.22221 1.22221 1.22221 1.22221 1.22221 2.28132 2.28132 2.28132 1.22221 
1.22221 1.22221 1.22221 2.28132 2.28132 1.22221 1.22221 1.22221 1.22221 
1.22221 1.22221 2.28132 1.22221 1.22221 1.22221 1.22221 1.22221 1.22221 
2.28132 1.22221 1.22221 1.22221 1.22221 1.22221 1.22221 1.22221 1.22221 
1.22221 1.22221 1.22221 1.22221 1.22221 1.22221 1.22221 1.22221 1.22221 
1.22221 1.22221 1.22221 1.22221 1.22221 1.22221 1.22221 1.22221 1.22221 
2.28132 2.28132 2.28132 2.28132 2.28132 2.28132 2.28132 2.28132 2.28132 
2.28132 2.28132 2.28132 2.28132 2.28132 1.22221 1.22221 1.22221 1.22221 
1.22221 1.22221 1.22221 1.22221 1.22221 1.22221 1.22221 2.28132 2.28132 
2.28132 2.28132 2.28132 2.28132 2.28132 2.28132 1.22221 1.22221 1.22221 
1.22221 1.22221 1.22221 1.22221 1.22221 1.22221 1.22221 1.22221 2.28132 
2.28132 2.28132 2.28132 2.28132 1.22221 1.22221 1.22221 1.22221 1.22221 
1.22221 1.22221 1.22221 1.22221 1.22221 1.22221 1.22221 1.22221 1.22221 
2.28132 2.28132 1.22221 2.28132 1.22221 1.22221 1.22221 1.22221 1.22221 
1.22221 1.22221 1.22221 1.22221 1.22221 1.22221 1.22221 1.22221 1.22221 
1.22221 1.22221 2.28132 1.22221 1.22221 1.22221 1.22221 1.22221 1.22221 
1.22221 1.22221 1.22221 1.22221 1.22221 1.22221 1.22221 1.22221 1.22221 
1.22221 1.22221 1.22221 1.22221 1.22221 1.22221 1.22221 1.22221 1.22221 
1.22221 1.22221 1.22221 1.22221 1.22221 1.22221 1.22221 1.22221 1.22221 
1.22221 1.22221 1.22221 1.22221 1.22221 1.22221 1.22221 1.22221 1.22221 
1.22221 1.22221 1.22221 1.22221 1.22221 1.22221 1.22221 1.22221 1.22221 
1.22221 1.22221 1.22221 1.22221 1.22221 1.22221 1.22221 1.22221 1.22221 
1.22221 1.22221 1.22221 1.22221 1.22221 1.22221 1.22221 1.22221 1.22221 
1.22221 1.22221 1.22221 1.22221 1.22221 2.28132 2.28132 2.28132 2.28132 
2.28132 2.28132 2.28132 2.28132 2.28132 2.28132 2.28132 2.28132 2.28132 
2.28132 2.28132 2.28132 2.28132 2.28132 2.28132 2.28132 2.28132 2.28132 
2.28132 2.28132 2.28132 2.28132 2.28132 2.28132 2.28132 2.28132 2.28132 
2.28132 2.28132 2.28132 2.28132 2.28132 2.28132 2.28132 2.28132 2.28132 
2.28132 2.28132 2.28132 2.28132 2.28132 2.28132 2.28132 2.28132 2.28132 
1.22221 1.22221 1.22221 1.22221 1.22221 1.22221 1.22221 1.22221 1.22221 
1.22221 1.22221 1.22221 1.22221 1.22221 1.22221 1.22221 1.22221 1.22221 
1.22221 1.22221 1.22221 1.22221 1.22221 1.22221 1.22221 1.22221 1.22221 
1.22221 1.22221 1.22221 1.22221 1.22221 1.22221 1.22221 1.22221 1.22221 
1.22221 2.28132 2.28132 2.28132 2.28132 2.28132 2.28132 2.28132 2.28132 
2.28132 2.28132 2.28132 2.28132 2.28132 2.28132 2.28132 2.28132 2.28132 
2.28132 2.28132 2.28132 2.28132 2.28132 2.28132 2.28132 2.28132 2.28132 
2.28132 2.28132 2.28132 2.28132 1.22221 1.22221 2.28132 1.22221 1.22221 
1.22221 1.22221 1.22221 1.22221 1.22221 1.22221 1.22221 1.22221 1.22221 
1.22221 1.22221 1.22221 1.22221 1.22221 1.22221 1.22221 1.22221 1.22221 
1.22221 1.22221 1.22221 1.22221 1.22221 1.22221 1.22221 1.22221 1.22221 
1.22221 1.22221 1.22221 1.22221 1.22221 1.22221 1.22221 1.22221 1.22221 
1.22221 1.22221 1.22221 2.28132 2.28132 2.28132 2.28132 2.28132 2.28132 
2.28132 2.28132 2.28132 2.28132 2.28132 2.28132 2.28132 2.28132 2.28132 
2.28132 2.28132 2.28132 1.22221 1.22221 2.28132 2.28132 2.28132 1.22221 
1.22221 1.22221 1.22221 1.22221 1.22221 1.22221 1.22221 1.22221 1.22221 
1.22221 1.22221 1.22221 1.22221 1.22221 1.22221 1.22221 1.22221 1.22221 
1.22221 1.22221 1.22221 1.22221 1.22221 1.22221 1.22221 1.22221 1.22221 
1.22221 1.22221 1.22221 1.22221 1.22221 1.22221 1.22221 1.22221 1.22221 
1.22221 1.22221 1.22221 1.22221 1.22221 1.22221 1.22221 1.22221 1.22221 
1.22221 1.22221 1.22221 1.22221 1.22221 2.28132 2.28132 2.28132 2.28132 
2.28132 2.28132 2.28132 2.28132 2.28132 2.28132 2.28132 2.28132 1.22221 
1.22221 1.22221 1.22221 1.22221 1.22221 1.22221 1.22221 1.22221 1.22221 
1.22221 1.22221 1.22221 1.22221 1.22221 1.22221 1.22221 1.22221 1.22221 
1.22221 1.22221 1.22221 1.22221 1.22221 1.22221 1.22221 1.22221 1.22221 
1.22221 1.22221 1.22221 1.22221 1.22221 1.22221 1.22221 1.22221 1.22221 
1.22221 1.22221 1.22221 1.22221 1.22221 1.22221 1.22221 1.22221 1.22221 
1.22221 1.22221 1.22221 1.22221 1.22221 1.22221 1.22221 1.22221 1.22221 
1.22221 1.22221 1.22221 1.22221 1.22221 1.22221 1.22221 2.28132 2.28132 
1.22221 2.28132 1.22221 1.22221 1.22221 1.22221 2.28132 1.22221 1.22221 
1.22221 1.22221 1.22221 1.22221 1.22221 1.22221 1.22221 1.22221 1.22221 
1.22221 1.22221 1.22221 1.22221 1.22221 1.22221 1.22221 1.22221 1.22221 
1.22221 1.22221 1.22221 1.22221 1.22221 1.22221 1.22221 1.22221 1.22221 
1.22221 1.22221 1.22221 1.22221 1.22221 1.22221 1.22221 1.22221 1.22221 
1.22221 1.22221 1.22221 1.22221 1.22221 1.22221 1.22221 1.22221 1.22221 
1.22221 1.22221 1.22221 1.22221 1.22221 1.22221 1.22221 1.22221 1.22221 
1.22221 1.22221 1.22221 1.22221 1.22221 1.22221 1.22221 1.22221 1.22221 
1.22221 1.22221 1.22221 1.22221 1.22221 1.22221 1.22221 1.22221 1.22221 
1.22221 1.22221 1.22221 1.22221 1.22221 1.22221 1.22221 1.22221 1.22221 
1.22221 1.22221 1.22221 1.22221 1.22221 1.22221 1.22221 1.22221 1.22221 
1.22221 1.22221 1.22221 1.22221 1.22221 1.22221 1.22221 1.22221 1.22221 
1.22221 1.22221 1.22221 1.22221 1.22221 1.22221 1.22221 1.22221 1.22221 
1.22221 1.22221 1.22221 1.22221 1.22221 1.22221 1.22221 1.22221 1.22221 
1.22221 1.22221 1.22221 1.22221 1.22221 1.22221 1.22221 1.22221 1.22221 
1.22221 1.22221 1.22221 1.22221 1.22221 1.22221 1.22221 1.22221 1.22221 
1.22221 1.22221 1.22221 1.22221 1.22221 1.22221 1.22221 1.22221 1.22221 
1.22221 1.22221 1.22221 1.22221 1.22221 1.22221 1.22221 1.22221 1.22221 
1.22221 1.22221 1.22221 1.22221 1.22221 1.22221 1.22221 1.22221 1.22221 
1.22221 1.22221 1.22221 1.22221 1.22221 1.22221 1.22221 1.22221 1.22221 
1.22221 1.22221 1.22221 1.22221 1.22221 1.22221 1.22221 1.22221 1.22221 
1.22221 1.22221 1.22221 1.22221 1.22221 1.22221 1.22221 1.22221 1.22221 
1.22221 1.22221 1.22221 1.22221 1.22221 1.22221 1.22221 1.22221 1.22221 
1.22221 1.22221 1.22221 1.22221 1.22221 1.22221 1.22221 1.22221 1.22221 
1.22221 1.22221 1.22221 1.22221 1.22221 1.22221 1.22221 1.22221 1.22221 
1.22221 1.22221 1.22221 1.22221 1.22221 1.22221 1.22221 1.22221 1.22221 
1.22221 1.22221 1.22221 1.22221 1.22221 1.22221 1.22221 1.22221 1.22221 
1.22221 1.22221 1.22221 1.22221 1.22221 1.22221 1.22221 1.22221 1.22221 
1.22221 1.22221 1.22221 1.22221 1.22221 1.22221 1.22221 1.22221 1.22221 
1.22221 1.22221 1.22221 1.22221 1.22221 1.22221 1.22221 1.22221 1.22221 
1.22221 1.22221 1.22221 1.22221 1.22221 1.22221 1.22221 1.22221 1.22221 
1.22221 1.22221 1.22221 1.22221 1.22221 1.22221 1.22221 1.22221 1.22221 
1.22221 1.22221 1.22221 1.22221 1.22221 1.22221 
