# vtk DataFile Version 3.0
vtk output
ASCII
DATASET UNSTRUCTURED_GRID
FIELD FieldData 1
avtOriginalBounds 1 6 double
-0.75 0.75 -0.5 0.5 0 0 
POINTS 12513 double
0.75 -0.232051 0 0.75 -0.110042 0 0.552083 -0.154701 0 
0.55 -0.285641 0 0.75 0.011966 0 0.554167 -0.0237605 0 
0.75 0.133974 0 0.55625 0.10718 0 0.75 0.255983 0 
0.558333 0.23812 0 0.75 0.377992 0 0.560417 0.36906 0 
0.75 0.5 0 0.5625 0.5 0 0.354167 -0.199359 0 
0.35 -0.339231 0 0.358333 -0.0594871 0 0.3625 0.0803847 0 
0.366667 0.220256 0 0.370833 0.360128 0 0.375 0.5 0 
0.15625 -0.244017 0 0.15 -0.39282 0 0.1625 -0.0952136 0 
0.16875 0.0535898 0 0.175 0.202393 0 0.18125 0.351197 0 
0.1875 0.5 0 -0.0416667 -0.288675 0 -0.05 -0.44641 0 
-0.0333333 -0.13094 0 -0.025 0.0267949 0 -0.0166667 0.18453 0 
-0.00833333 0.342265 0 0 0.5 0 -0.239583 -0.333333 0 
-0.25 -0.5 0 -0.229167 -0.166667 0 -0.21875 6.05576e-18 0 
-0.208333 0.166667 0 -0.197917 0.333333 0 -0.1875 0.5 0 
-0.409722 -0.333333 0 -0.416667 -0.5 0 -0.402778 -0.166667 0 
-0.395833 6.05576e-18 0 -0.388889 0.166667 0 -0.381944 0.333333 0 
-0.375 0.5 0 -0.579861 -0.333333 0 -0.583333 -0.5 0 
-0.576389 -0.166667 0 -0.572917 6.05576e-18 0 -0.569444 0.166667 0 
-0.565972 0.333333 0 -0.5625 0.5 0 -0.75 -0.333333 0 
-0.75 -0.5 0 -0.75 -0.166667 0 -0.75 0 0 
-0.75 0.166667 0 -0.75 0.333333 0 -0.75 0.5 0 
0.75 -0.171047 0 0.650521 -0.195609 0 0.65 -0.258846 0 
0.651042 -0.132372 0 0.551042 -0.220171 0 0.75 -0.0490382 0 
0.651563 -0.0691344 0 0.652083 -0.00589727 0 0.553125 -0.0892306 0 
0.75 0.0729703 0 0.652604 0.0573399 0 0.653125 0.120577 0 
0.555208 0.0417095 0 0.75 0.194979 0 0.653646 0.183814 0 
0.654167 0.247051 0 0.557292 0.17265 0 0.75 0.316987 0 
0.654687 0.310289 0 0.655208 0.373526 0 0.559375 0.30359 0 
0.75 0.438996 0 0.655729 0.436763 0 0.65625 0.5 0 
0.561458 0.43453 0 0.451562 -0.244733 0 0.45 -0.312436 0 
0.453125 -0.17703 0 0.352083 -0.269295 0 0.454688 -0.109327 0 
0.45625 -0.0416238 0 0.35625 -0.129423 0 0.457812 0.0260792 0 
0.459375 0.0937821 0 0.360417 0.0104488 0 0.460937 0.161485 0 
0.4625 0.229188 0 0.364583 0.150321 0 0.464062 0.296891 0 
0.465625 0.364594 0 0.36875 0.290192 0 0.467187 0.432297 0 
0.46875 0.5 0 0.372917 0.430064 0 0.252604 -0.293857 0 
0.25 -0.366026 0 0.255208 -0.221688 0 0.153125 -0.318419 0 
0.257812 -0.149519 0 0.260417 -0.0773503 0 0.159375 -0.169615 0 
0.263021 -0.00518154 0 0.265625 0.0669872 0 0.165625 -0.0208119 0 
0.268229 0.139156 0 0.270833 0.211325 0 0.171875 0.127992 0 
0.273437 0.283494 0 0.276042 0.355662 0 0.178125 0.276795 0 
0.278646 0.427831 0 0.28125 0.5 0 0.184375 0.425598 0 
0.0536458 -0.342981 0 0.05 -0.419615 0 0.0572917 -0.266346 0 
-0.0458333 -0.367543 0 0.0609375 -0.189711 0 0.0645833 -0.113077 0 
-0.0375 -0.209808 0 0.0682292 -0.0364423 0 0.071875 0.0401924 0 
-0.0291667 -0.0520726 0 0.0755208 0.116827 0 0.0791667 0.193462 0 
-0.0208333 0.105662 0 0.0828125 0.270096 0 0.0864583 0.346731 0 
-0.0125 0.263397 0 0.0901042 0.423365 0 0.09375 0.5 0 
-0.00416667 0.421132 0 -0.145313 -0.392105 0 -0.15 -0.473205 0 
-0.140625 -0.311004 0 -0.244792 -0.416667 0 -0.135937 -0.229904 0 
-0.13125 -0.148803 0 -0.234375 -0.25 0 -0.126562 -0.067703 0 
-0.121875 0.0133975 0 -0.223958 -0.0833333 0 -0.117187 0.0944979 0 
-0.1125 0.175598 0 -0.213542 0.0833333 0 -0.107812 0.256699 0 
-0.103125 0.337799 0 -0.203125 0.25 0 -0.0984375 0.4189 0 
-0.09375 0.5 0 -0.192708 0.416667 0 -0.328993 -0.416667 0 
-0.333333 -0.5 0 -0.324653 -0.333333 0 -0.413194 -0.416667 0 
-0.320312 -0.25 0 -0.315972 -0.166667 0 -0.40625 -0.25 0 
-0.311632 -0.0833333 0 -0.307292 6.05576e-18 0 -0.399306 -0.0833333 0 
-0.302951 0.0833333 0 -0.298611 0.166667 0 -0.392361 0.0833333 0 
-0.294271 0.25 0 -0.289931 0.333333 0 -0.385417 0.25 0 
-0.28559 0.416667 0 -0.28125 0.5 0 -0.378472 0.416667 0 
-0.497396 -0.416667 0 -0.5 -0.5 0 -0.494792 -0.333333 0 
-0.581597 -0.416667 0 -0.492188 -0.25 0 -0.489583 -0.166667 0 
-0.578125 -0.25 0 -0.486979 -0.0833333 0 -0.484375 6.05576e-18 0 
-0.574653 -0.0833333 0 -0.481771 0.0833333 0 -0.479167 0.166667 0 
-0.571181 0.0833333 0 -0.476562 0.25 0 -0.473958 0.333333 0 
-0.567708 0.25 0 -0.471354 0.416667 0 -0.46875 0.5 0 
-0.564236 0.416667 0 -0.665799 -0.416667 0 -0.666667 -0.5 0 
-0.664931 -0.333333 0 -0.75 -0.416667 0 -0.664062 -0.25 0 
-0.663194 -0.166667 0 -0.75 -0.25 0 -0.662326 -0.0833333 0 
-0.661458 3.02788e-18 0 -0.75 -0.0833333 0 -0.66059 0.0833333 0 
-0.659722 0.166667 0 -0.75 0.0833333 0 -0.658854 0.25 0 
-0.657986 0.333333 0 -0.75 0.25 0 -0.657118 0.416667 0 
-0.65625 0.5 0 -0.75 0.416667 0 0.75 -0.201549 0 
0.70013 -0.214388 0 0.7 -0.245448 0 0.70026 -0.183328 0 
0.65026 -0.227227 0 0.75 -0.140545 0 0.700391 -0.152267 0 
0.700521 -0.121207 0 0.650781 -0.16399 0 0.600391 -0.240067 0 
0.6 -0.272243 0 0.600781 -0.20789 0 0.550521 -0.252906 0 
0.601172 -0.175713 0 0.601562 -0.143536 0 0.551562 -0.187436 0 
0.75 -0.0795404 0 0.700651 -0.0901467 0 0.700781 -0.0590863 0 
0.651302 -0.100753 0 0.75 -0.0185361 0 0.700911 -0.028026 0 
0.701042 0.00303437 0 0.651823 -0.0375158 0 0.601953 -0.111359 0 
0.602344 -0.0791825 0 0.552604 -0.121966 0 0.602734 -0.0470057 0 
0.603125 -0.0148289 0 0.553646 -0.0564956 0 0.75 0.0424681 0 
0.701172 0.0340947 0 0.701302 0.0651551 0 0.652344 0.0257213 0 
0.75 0.103472 0 0.701432 0.0962154 0 0.701562 0.127276 0 
0.652865 0.0889585 0 0.603516 0.0173479 0 0.603906 0.0495247 0 
0.554688 0.0089745 0 0.604297 0.0817015 0 0.604687 0.113878 0 
0.555729 0.0744446 0 0.75 0.164477 0 0.701693 0.158336 0 
0.701823 0.189396 0 0.653385 0.152196 0 0.75 0.225481 0 
0.701953 0.220457 0 0.702083 0.251517 0 0.653906 0.215433 0 
0.605078 0.146055 0 0.605469 0.178232 0 0.556771 0.139915 0 
0.605859 0.210409 0 0.60625 0.242586 0 0.557812 0.205385 0 
0.75 0.286485 0 0.702214 0.282578 0 0.702344 0.313638 0 
0.654427 0.27867 0 0.75 0.347489 0 0.702474 0.344698 0 
0.702604 0.375759 0 0.654948 0.341907 0 0.606641 0.274762 0 
0.607031 0.306939 0 0.558854 0.270855 0 0.607422 0.339116 0 
0.607813 0.371293 0 0.559896 0.336325 0 0.75 0.408494 0 
0.702734 0.406819 0 0.702865 0.437879 0 0.655469 0.405144 0 
0.75 0.469498 0 0.702995 0.46894 0 0.703125 0.5 0 
0.65599 0.468381 0 0.608203 0.40347 0 0.608594 0.435646 0 
0.560938 0.401795 0 0.608984 0.467823 0 0.609375 0.5 0 
0.561979 0.467265 0 0.500651 -0.265745 0 0.5 -0.299038 0 
0.501302 -0.232452 0 0.450781 -0.278584 0 0.501953 -0.199158 0 
0.502604 -0.165865 0 0.452344 -0.210881 0 0.400911 -0.291423 0 
0.4 -0.325833 0 0.401823 -0.257014 0 0.351042 -0.304263 0 
0.402734 -0.222604 0 0.403646 -0.188194 0 0.353125 -0.234327 0 
0.503255 -0.132572 0 0.503906 -0.0992787 0 0.453906 -0.143178 0 
0.504557 -0.0659854 0 0.505208 -0.0326922 0 0.455469 -0.0754753 0 
0.404557 -0.153785 0 0.405469 -0.119375 0 0.355208 -0.164391 0 
0.40638 -0.0849651 0 0.407292 -0.0505554 0 0.357292 -0.094455 0 
0.505859 0.000601094 0 0.50651 0.0338944 0 0.457031 -0.00777231 0 
0.507161 0.0671876 0 0.507812 0.100481 0 0.458594 0.0599307 0 
0.408203 -0.0161457 0 0.409115 0.018264 0 0.359375 -0.0245191 0 
0.410026 0.0526737 0 0.410937 0.0870834 0 0.361458 0.0454168 0 
0.508464 0.133774 0 0.509115 0.167067 0 0.460156 0.127634 0 
0.509766 0.200361 0 0.510417 0.233654 0 0.461719 0.195337 0 
0.411849 0.121493 0 0.41276 0.155903 0 0.363542 0.115353 0 
0.413672 0.190313 0 0.414583 0.224722 0 0.365625 0.185289 0 
0.511068 0.266947 0 0.511719 0.30024 0 0.463281 0.26304 0 
0.51237 0.333534 0 0.513021 0.366827 0 0.464844 0.330743 0 
0.415495 0.259132 0 0.416406 0.293542 0 0.367708 0.255224 0 
0.417318 0.327951 0 0.418229 0.362361 0 0.369792 0.32516 0 
0.513672 0.40012 0 0.514323 0.433413 0 0.466406 0.398446 0 
0.514974 0.466707 0 0.515625 0.5 0 0.467969 0.466149 0 
0.419141 0.396771 0 0.420052 0.431181 0 0.371875 0.395096 0 
0.420964 0.46559 0 0.421875 0.5 0 0.373958 0.465032 0 
0.301172 -0.317102 0 0.3 -0.352628 0 0.302344 -0.281576 0 
0.251302 -0.329941 0 0.303516 -0.24605 0 0.304687 -0.210523 0 
0.253906 -0.257772 0 0.201432 -0.34278 0 0.2 -0.379423 0 
0.202865 -0.306138 0 0.151562 -0.35562 0 0.204297 -0.269495 0 
0.205729 -0.232852 0 0.154687 -0.281218 0 0.305859 -0.174997 0 
0.307031 -0.139471 0 0.25651 -0.185604 0 0.308203 -0.103945 0 
0.309375 -0.0684187 0 0.259115 -0.113435 0 0.207161 -0.19621 0 
0.208594 -0.159567 0 0.157812 -0.206816 0 0.210026 -0.122925 0 
0.211458 -0.086282 0 0.160937 -0.132414 0 0.310547 -0.0328925 0 
0.311719 0.00263364 0 0.261719 -0.0412659 0 0.312891 0.0381598 0 
0.314062 0.073686 0 0.264323 0.0309029 0 0.212891 -0.0496393 0 
0.214323 -0.0129967 0 0.164062 -0.0580127 0 0.215755 0.0236459 0 
0.217187 0.0602885 0 0.167187 0.016389 0 0.315234 0.109212 0 
0.316406 0.144738 0 0.266927 0.103072 0 0.317578 0.180264 0 
0.31875 0.215791 0 0.269531 0.17524 0 0.21862 0.0969311 0 
0.220052 0.133574 0 0.170312 0.0907907 0 0.221484 0.170216 0 
0.222917 0.206859 0 0.173438 0.165192 0 0.319922 0.251317 0 
0.321094 0.286843 0 0.272135 0.247409 0 0.322266 0.322369 0 
0.323437 0.357895 0 0.27474 0.319578 0 0.224349 0.243502 0 
0.225781 0.280144 0 0.176563 0.239594 0 0.227214 0.316787 0 
0.228646 0.35343 0 0.179688 0.313996 0 0.324609 0.393421 0 
0.325781 0.428948 0 0.277344 0.391747 0 0.326953 0.464474 0 
0.328125 0.5 0 0.279948 0.463916 0 0.230078 0.390072 0 
0.23151 0.426715 0 0.182813 0.388397 0 0.232943 0.463357 0 
0.234375 0.5 0 0.185938 0.462799 0 0.101693 -0.368459 0 
0.1 -0.406218 0 0.103385 -0.3307 0 0.0518229 -0.381298 0 
0.105078 -0.292941 0 0.106771 -0.255182 0 0.0554687 -0.304663 0 
0.00195312 -0.394137 0 -2.08167e-17 -0.433013 0 0.00390625 -0.355262 0 
-0.0479167 -0.406976 0 0.00585937 -0.316386 0 0.0078125 -0.277511 0 
-0.04375 -0.328109 0 0.108464 -0.217422 0 0.110156 -0.179663 0 
0.0591146 -0.228029 0 0.111849 -0.141904 0 0.113542 -0.104145 0 
0.0627604 -0.151394 0 0.00976562 -0.238635 0 0.0117187 -0.19976 0 
-0.0395833 -0.249241 0 0.0136719 -0.160884 0 0.015625 -0.122008 0 
-0.0354167 -0.170374 0 0.115234 -0.0663862 0 0.116927 -0.0286271 0 
0.0664062 -0.0747596 0 0.11862 0.009132 0 0.120312 0.0468911 0 
[...]
POINT_DATA 12513
SCALARS density_aux double
LOOKUP_TABLE default
2.22034 2.28159 2.28138 2.21972 2.28291 2.28282 2.28273 1.77554 1.66305 
1.2222 1.22221 1.22222 1.22222 1.22221 2.28166 2.21898 2.10466 1.22222 
1.22228 1.2222 1.22221 2.27845 2.21779 1.22229 1.22215 1.22239 1.22228 
1.22222 1.23787 2.21447 1.22207 1.2222 1.22224 1.22212 1.22222 1.22221 
1.49827 1.22218 1.22227 1.22222 1.22217 1.22222 1.2223 1.22242 1.22222 
1.2222 1.22223 1.22209 1.22226 1.22206 1.22222 1.22213 1.22222 1.22222 
1.22217 1.22244 1.22221 1.22221 1.22221 1.22221 1.22221 1.22221 1.22221 
2.27059 2.27166 2.22035 2.28159 2.27262 2.28262 2.28246 2.28281 2.28262 
2.28251 2.283 2.28275 2.28283 2.28267 1.69571 1.222 1.22189 1.22211 
1.22232 1.22221 1.22208 1.22221 1.2222 1.22221 1.22224 2.27351 2.21986 
2.28208 2.27447 2.28275 2.28326 2.28237 1.9361 1.22313 1.23682 1.22212 
1.22225 1.22221 1.22186 1.22222 1.22187 1.2222 1.22221 1.2222 2.27451 
2.21902 2.28272 2.27573 2.22979 1.28306 1.42051 1.22209 1.22216 1.22199 
1.22233 1.22228 1.22225 1.22192 1.22222 1.222 1.22221 1.22223 1.2222 
2.27472 2.21748 1.74667 2.13443 1.22203 1.22224 1.22229 1.22217 1.22218 
1.22223 1.22223 1.2223 1.22221 1.22214 1.22227 1.22227 1.22222 1.22223 
1.22223 1.35818 2.24199 1.22226 1.22228 1.22217 1.22203 1.22221 1.22218 
1.22221 1.22215 1.22221 1.22225 1.22224 1.22215 1.22215 1.22219 1.22222 
1.22222 1.22224 1.22218 1.22288 1.22223 1.22231 1.22205 1.22218 1.22213 
1.22225 1.22222 1.22222 1.22221 1.2222 1.22219 1.22223 1.22202 1.2222 
1.22232 1.22222 1.22239 1.22231 1.22208 1.22214 1.22224 1.22216 1.22219 
1.22219 1.22218 1.22221 1.22226 1.22223 1.22223 1.2222 1.22221 1.22212 
1.22222 1.22222 1.22239 1.22219 1.22231 1.22212 1.22214 1.22221 1.22221 
1.22224 1.22221 1.22224 1.22221 1.22221 1.2222 1.22225 1.22221 1.22221 
1.22219 1.22221 1.22219 1.22215 1.22221 2.24845 2.24905 2.22025 2.27158 
2.24973 2.27888 2.27877 2.28143 2.27908 2.24995 2.22047 2.27214 2.25101 
2.27963 2.28155 2.27976 2.28204 2.28229 2.28242 2.28258 2.28269 2.28287 
2.28273 2.28291 2.28229 2.28267 2.28247 2.28225 2.28292 2.28291 2.28287 
2.28296 2.28277 2.28281 2.28265 2.2826 2.28255 2.28252 2.28299 2.28273 
2.28273 2.28233 2.22949 2.2422 2.28228 2.28246 2.2175 2.22062 2.21239 
1.68758 1.28121 1.2836 1.72412 1.29098 1.30325 1.22196 1.22218 1.22217 
1.26818 1.22128 1.22233 1.22156 1.22219 1.22222 1.22222 1.22222 1.22173 
1.22224 1.22181 1.22218 1.22221 1.22219 1.2222 1.2222 1.22222 1.22224 
1.22222 1.22222 1.22222 1.2222 1.22221 1.22222 1.2222 1.22222 1.22221 
1.22222 2.25163 2.2195 2.27309 2.25198 2.27955 2.28196 2.27972 2.25228 
2.21981 2.27365 2.25296 2.28033 2.2818 2.28022 2.28236 2.28278 2.28237 
2.28294 2.28252 2.28202 2.28246 2.28258 2.2828 2.28341 2.27758 2.28227 
2.28223 2.25659 2.26921 1.8477 1.32827 1.36241 2.0221 1.41688 1.48638 
1.2269 1.22216 1.22201 1.22195 1.2221 1.22225 1.22219 1.22223 1.22224 
1.22224 1.22217 1.22221 1.22229 1.22232 1.22227 1.22186 1.22192 1.22188 
1.22224 1.2222 1.22228 1.22199 1.22184 1.22207 1.22231 1.22223 1.22226 
1.22223 1.22219 1.22221 1.2222 1.22221 1.22221 1.22221 1.22222 1.22221 
1.22221 1.22224 1.22222 2.25427 2.2185 2.27428 2.25425 2.28018 2.28185 
2.28045 2.2543 2.21887 2.27583 2.25519 2.28073 2.28191 2.28003 2.28245 
2.28317 2.28206 2.17645 1.58237 1.72237 2.26314 1.89858 2.05413 1.33749 
1.22238 1.22839 1.25423 1.22236 1.22198 1.2219 1.22213 1.22212 1.22224 
1.22199 1.22215 1.22221 1.22216 1.22218 1.22227 1.22233 1.22212 1.22233 
1.22228 1.22234 1.22219 1.22227 1.22225 1.22233 1.22234 1.2223 1.22215 
1.22189 1.22216 1.22221 1.22218 1.22208 1.22219 1.22195 1.22222 1.222 
1.22225 1.22194 1.22221 1.22221 1.22222 1.2222 1.22219 1.2222 1.22223 
1.22223 1.22222 1.22223 1.22222 1.22222 2.25598 2.21712 2.27524 2.25691 
2.28022 2.16583 2.23715 2.25577 2.21728 2.26707 2.25751 1.97883 1.37326 
1.49884 1.54958 1.25068 1.29835 1.22221 1.22219 1.22214 1.22371 1.22224 
1.22226 1.22228 1.22216 1.22226 1.22226 1.22207 1.22201 1.2222 1.22214 
1.22215 1.22203 1.22225 1.22208 1.22212 1.22215 1.22213 1.22225 1.22222 
1.2223 1.22215 1.2224 1.22219 1.22228 1.22223 1.22226 1.22222 1.22221 
1.22221 1.22228 1.22209 1.22232 1.22196 1.2223 1.22199 1.22233 1.22223 
1.2222 1.22202 1.2222 1.22209 1.2222 1.22221 1.2222 1.22221 1.22221 
1.22222 1.22221 1.22221 1.22222 1.22223 1.22221 1.22222 2.22142 2.21526 
1.71158 1.95826 1.28471 1.22212 1.22267 1.49138 2.30945 1.23296 1.2436 
1.22222 1.22216 1.22223 1.22225 1.2222 1.2222 1.22225 1.22208 1.22222 
1.2222 1.22227 1.22222 1.22213 1.22212 1.22205 1.22205 1.22223 1.22212 
1.22217 1.22227 1.22218 1.2222 1.2221 1.22221 1.22222 1.22228 1.22226 
1.22226 1.22221 1.22223 1.22222 1.22222 1.2222 1.22224 1.22225 1.22221 
1.22219 1.22223 1.22219 1.22218 1.22224 1.2222 1.22214 1.22211 1.22215 
1.2222 1.22218 1.22224 1.2221 1.22213 1.22206 1.22224 1.22222 1.22231 
1.22221 1.22222 1.22221 1.22234 1.22222 1.22237 1.22222 1.22222 1.22222 
1.22201 1.22487 1.22221 1.2224 1.22218 1.22221 1.22225 1.22265 1.22225 
1.22222 1.22259 1.22223 1.22221 1.22224 1.22213 1.22215 1.22227 1.22204 
1.22211 1.22212 1.22221 1.22197 1.22212 1.22215 1.22219 1.22221 1.22226 
1.22215 1.2222 1.22222 1.22225 1.22227 1.22214 1.22226 1.22215 1.22221 
1.2222 1.2223 1.22219 1.22223 1.22221 1.22224 1.22222 1.22221 1.22221 
1.2222 1.22219 1.22223 1.22221 1.22223 1.22223 1.2222 1.22222 1.22212 
1.22207 1.22216 1.22218 1.22222 1.22222 1.22217 1.22205 1.22218 1.22231 
1.22226 1.22226 1.22222 1.22222 1.22224 1.22214 1.22235 1.22204 1.22227 
1.22222 1.22231 1.22249 1.22253 1.22234 1.22242 1.22224 1.22222 1.22222 
1.2224 1.22189 1.22228 1.22239 1.22226 1.22202 1.22211 1.22202 1.22216 
1.2221 1.22216 1.22223 1.22217 1.22214 1.22219 1.22214 1.22219 1.22216 
1.22218 1.22223 1.22217 1.22223 1.22223 1.22221 1.22227 1.22228 1.22219 
1.22216 1.22221 1.22223 1.22225 1.22222 1.22223 1.22223 1.22222 1.22219 
1.2222 1.2222 1.22222 1.22221 1.22221 1.2222 1.22221 1.22221 1.22221 
1.22223 1.22218 1.22209 1.2222 1.22223 1.22223 1.22221 1.22221 1.22214 
1.22222 1.22207 1.22232 1.22209 1.22233 1.22232 1.22233 1.22208 1.22218 
1.2221 1.22233 1.22244 1.22225 1.22241 1.22228 1.22237 1.22237 1.22209 
1.22214 1.2221 1.22232 1.2222 1.22227 1.22221 1.22225 1.22224 1.22221 
1.22223 1.2222 1.22219 1.22222 1.22222 1.22221 1.2222 1.22223 1.22221 
1.22225 1.22225 1.22221 1.22215 1.22226 1.22209 1.22221 1.22222 1.22225 
1.22224 1.22218 1.22221 1.22219 1.22222 1.22221 1.2222 1.22217 1.2222 
1.22221 1.22222 1.22219 1.22218 1.22224 1.22221 1.22222 1.22222 1.22221 
1.22222 1.22222 1.22221 1.22221 1.22216 1.22222 1.22221 1.22221 1.22221 
1.2222 1.22218 1.22221 1.22209 1.22217 1.22213 1.22234 1.22236 1.22238 
1.22216 1.22222 1.22221 1.22234 1.22216 1.22221 2.23164 2.23165 2.22025 
2.24881 2.23174 2.26201 2.26239 2.27106 2.26267 2.23184 2.22023 2.24935 
2.23191 2.26307 2.27175 2.26324 2.27571 2.2761 2.2788 2.27634 2.28069 
2.28056 2.28167 2.28046 2.27642 2.27897 2.27655 2.28031 2.28133 2.2805 
2.23222 2.22048 2.24988 2.23218 2.26314 2.27181 2.26338 2.23219 2.22017 
2.25045 2.23212 2.26384 2.27226 2.2642 2.27664 2.27925 2.2769 2.28091 
2.2816 2.28093 2.2772 2.27978 2.27737 2.28087 2.28165 2.28104 2.28197 
2.28188 2.28203 2.28201 2.28229 2.28225 2.28233 2.28217 2.28224 2.28238 
2.2821 2.28248 2.28269 2.28279 2.28269 2.28271 2.28299 2.28288 2.28275 
2.28284 2.28273 2.28269 2.28266 2.28272 2.28259 2.28295 2.28304 2.28289 
2.28212 2.28264 2.28218 2.28255 2.28252 2.28247 2.28195 2.28226 2.28178 
2.28255 2.28231 2.28245 2.28269 2.28251 2.28232 2.28236 2.28255 2.28263 
2.28247 2.2829 2.28308 2.28297 2.28288 2.28271 2.28301 2.28276 2.28277 
2.28289 2.28256 2.28261 2.28272 2.28285 2.28302 2.28296 2.28279 2.28283 
2.28279 2.28275 2.28269 2.28262 2.28257 2.28261 2.28263 2.28271 2.28265 
2.28267 2.28277 2.28258 2.28281 2.28255 2.28275 2.28262 2.28285 2.28295 
2.28299 2.28301 2.28311 2.28297 2.28285 2.2828 2.28292 2.28274 2.28271 
2.28274 2.28268 2.28243 2.28252 2.28255 2.27886 2.27985 2.28252 2.28079 
2.28169 2.2353 2.07546 2.09377 2.28249 2.28238 2.28246 2.2826 2.28246 
2.28246 2.27769 2.27746 2.28263 2.27757 2.27815 2.2183 2.03271 2.03829 
2.27727 2.21801 2.03268 2.03104 2.01522 1.69205 1.42862 1.43021 1.68923 
1.431 1.43464 1.28189 1.22986 1.23026 2.22437 2.04789 2.06052 1.70738 
1.44119 1.45059 1.74692 1.46353 1.48004 1.29654 1.23379 1.23623 1.28661 
1.23099 1.23211 1.22199 1.22216 1.22215 1.22194 1.22211 1.22212 1.22221 
1.22218 1.22222 1.39804 1.28171 1.22866 1.22935 1.22647 1.2219 1.22224 
1.22204 1.22161 1.22144 1.22171 1.22201 1.22239 1.22195 1.22222 1.22224 
1.22221 1.22217 1.22222 1.22221 1.22221 1.22222 1.22219 1.22219 1.22223 
1.22221 1.2222 1.22219 1.22174 1.22165 1.22183 1.22189 1.2223 1.22179 
1.22191 1.22179 1.22199 1.22177 1.22212 1.22175 1.2222 1.22223 1.22227 
1.22222 1.22221 1.22222 1.22229 1.22222 1.2223 1.2222 1.22222 1.22222 
1.22222 1.2222 1.22222 1.22221 1.22221 1.22221 1.2222 1.22221 1.22224 
1.22221 1.22221 1.2222 1.22221 1.22222 1.22221 1.22221 1.2222 1.22222 
1.22221 1.22223 1.22221 1.2222 1.22221 1.22222 1.22221 1.22221 1.22221 
1.22223 1.2222 1.22221 1.22222 1.22222 1.22222 1.22221 1.2222 1.22222 
1.22222 1.22223 1.22221 1.22221 1.22221 1.22222 1.22221 1.2222 1.22222 
1.22221 1.22222 1.22219 1.22221 1.22222 1.2222 1.22219 2.2322 2.21947 
2.25137 2.23213 2.26481 2.27298 2.26537 2.2324 2.21964 2.25203 2.23277 
2.26535 2.27317 2.26524 2.27707 2.2797 2.27708 2.28099 2.28146 2.28092 
2.27723 2.27935 2.27746 2.28118 2.2822 2.28123 2.23285 2.21999 2.25187 
2.23288 2.26544 2.27353 2.26553 2.23303 2.21936 2.25259 2.23301 2.2657 
2.27422 2.26661 2.27784 2.28023 2.27839 2.28118 2.28227 2.2814 2.27859 
2.28048 2.27829 2.2812 2.28111 2.2807 2.28214 2.28239 2.28215 2.28272 
2.28302 2.28298 2.28241 2.28262 2.2828 2.28249 2.28267 2.28223 2.28267 
2.28266 2.28264 2.28303 2.2832 2.2829 2.28287 2.2823 2.28233 2.28199 
2.2824 2.28255 2.28257 2.28215 2.28194 2.28234 2.28208 2.28229 2.28212 
2.28254 2.2825 2.28289 2.28337 2.28337 2.28242 2.28337 2.28351 2.28348 
2.28313 2.28248 2.28263 2.2822 2.28189 2.28057 2.2328 2.24922 2.28287 
2.2824 2.28228 2.28252 2.28237 2.28264 2.28286 2.283 2.28345 2.26342 
2.15186 2.17569 2.24936 2.11362 2.13204 1.80814 1.50003 1.5206 1.89213 
1.54953 1.58448 1.34469 1.24875 1.25625 2.2739 2.19728 2.2152 1.97729 
1.62728 1.6738 2.06679 1.72971 1.79692 1.45082 1.28839 1.30598 1.38418 
1.26575 1.27633 1.22459 1.22215 1.22208 1.23103 1.22195 1.22198 1.22199 
1.22223 1.22199 1.31267 1.23956 1.24346 1.22188 1.22214 1.22217 1.22231 
1.2222 1.22217 1.22215 1.22208 1.22211 1.22211 1.22218 1.22214 1.22224 
1.22222 1.22226 1.22217 1.22221 1.22216 1.22228 1.22223 1.22228 1.22221 
1.22229 1.2223 1.22209 1.22216 1.22213 1.22234 1.22219 1.22232 1.2222 
1.22218 1.22222 1.22217 1.22228 1.2222 1.22226 1.22228 1.22225 1.22225 
1.2223 1.22229 1.22226 1.22232 1.22231 1.22206 1.22185 1.22213 1.22174 
1.22197 1.22177 1.22218 1.22187 1.22221 1.22177 1.22192 1.22181 1.22236 
1.22218 1.2223 1.2222 1.22222 1.22221 1.22226 1.22224 1.22222 1.22222 
1.22221 1.22219 1.22221 1.22191 1.22217 1.22185 1.22185 1.22185 1.22217 
1.22204 1.22219 1.2219 1.22184 1.22192 1.22212 1.22231 1.22207 1.22221 
1.22221 1.2222 1.22198 1.22233 1.22196 1.22222 1.22221 1.22226 1.22222 
1.22222 1.22221 1.2222 1.22221 1.22222 1.22221 1.22222 1.22221 1.2222 
1.22222 1.22221 1.22222 1.22222 1.22222 1.22221 1.2222 1.22222 1.2222 
1.22223 1.2222 1.2222 1.22222 1.22223 1.22222 1.2222 1.22222 1.22222 
1.22221 1.22219 1.22221 1.22221 1.22222 1.22221 1.22219 1.22221 1.22221 
1.22219 1.22221 1.22222 1.22222 1.2222 1.22223 1.22221 1.22221 1.22221 
1.22222 1.22221 2.23304 2.21876 2.25385 2.2334 2.26732 2.27414 2.26717 
2.23348 2.21855 2.25401 2.23347 2.26747 2.27482 2.26772 2.27793 2.27989 
2.27798 2.28133 2.28224 2.2819 2.27792 2.28036 2.2782 2.28146 2.28246 
2.28193 2.2338 2.21901 2.25427 2.23393 2.26728 2.27488 2.26762 2.23419 
2.21867 2.25464 2.23396 2.26821 2.27533 2.26856 2.27916 2.2807 2.27892 
2.28187 2.2814 2.28097 2.27917 2.28078 2.27952 2.28123 2.28214 2.281 
2.28233 2.28286 2.28255 2.2825 2.28219 2.28244 2.28268 2.28223 2.28183 
2.28272 2.2755 2.27986 2.28309 2.26069 2.26914 2.14009 1.8617 1.92799 
2.20475 1.99332 2.05718 1.64719 1.40703 1.44597 2.282 2.28195 2.28257 
2.24897 2.11157 2.15675 2.27299 2.19675 2.22674 1.98226 1.61973 1.7085 
1.80451 1.49486 1.54743 1.30752 1.23857 1.25007 1.37528 1.26602 1.28695 
1.22392 1.22234 1.22207 1.52735 1.33383 1.36987 1.24519 1.22223 1.22296 
1.26723 1.22518 1.23033 1.22218 1.22228 1.2223 1.22219 1.2219 1.22207 
1.2221 1.22216 1.22217 1.222 1.22201 1.22199 1.22217 1.22215 1.22216 
1.22169 1.22229 1.22218 1.22232 1.22198 1.22227 1.22226 1.22214 1.22228 
1.2222 1.222 1.22209 1.222 1.22219 1.222 1.22217 1.22215 1.22219 
1.22205 1.22221 1.22215 1.22219 1.22216 1.22218 1.22223 1.22226 1.22214 
1.22222 1.22227 1.22221 1.2221 1.2222 1.22212 1.22224 1.22235 1.22226 
1.22233 1.22227 1.22233 1.22231 1.22227 1.22229 1.22232 1.22236 1.22236 
1.22231 1.22228 1.22234 1.22214 1.22212 1.22212 1.22224 1.2223 1.2222 
1.22212 1.22225 1.22215 1.22218 1.22226 1.22222 1.22239 1.22232 1.22235 
1.22236 1.2223 1.22234 1.22226 1.22234 1.22218 1.22234 1.22238 1.22236 
1.22219 1.22212 1.22219 1.22194 1.22186 1.22196 1.22222 1.22217 1.22227 
1.22198 1.2219 1.22201 1.22196 1.22225 1.2219 1.22222 1.22222 1.22229 
1.22193 1.22211 1.22191 1.22232 1.2222 1.2223 1.22228 1.22217 1.22231 
1.22205 1.22195 1.22209 1.22232 1.2222 1.22232 1.22213 1.22199 1.22218 
1.2219 1.22201 1.22193 1.22232 1.22222 1.22225 1.22191 1.22198 1.22195 
1.22223 1.22225 1.22219 1.22222 1.22222 1.22222 1.2222 1.22221 1.22223 
1.2222 1.22222 1.2222 1.2222 1.22223 1.22222 1.2222 1.22223 1.22222 
1.22222 1.2222 1.22222 1.22222 1.22222 1.22223 1.22218 1.22223 1.22221 
1.22222 1.2222 1.22221 1.22224 1.22221 1.2222 1.22221 1.22222 1.2222 
1.22224 1.2222 1.22223 1.22222 1.22219 1.22219 1.22223 1.22221 1.22221 
1.22221 1.22222 1.22222 1.22223 1.22221 1.22221 2.23397 2.2175 2.25627 
2.23456 2.26887 2.27586 2.26926 2.23423 2.21724 2.25658 2.23476 2.26975 
2.27518 2.26864 2.2781 2.28012 2.27859 2.28046 2.24933 2.26431 2.27809 
2.27312 2.27636 2.20766 2.00864 2.08189 2.23476 2.21718 2.25591 2.23473 
2.26878 2.27475 2.26802 2.23376 2.21561 2.25476 2.23274 2.26785 2.22957 
2.24969 2.25675 2.14393 2.19472 1.8715 1.5135 1.60471 2.06527 1.71727 
1.85107 1.42744 1.2892 1.32285 2.11377 1.81225 1.91738 1.47929 1.3131 
1.34719 1.63873 1.38936 1.44547 1.27088 1.22484 1.23006 1.23658 1.22206 
1.22263 1.22223 1.22224 1.22227 1.22225 1.22212 1.22227 1.22227 1.22221 
1.22225 1.33177 1.24168 1.26112 1.22221 1.22222 1.22224 1.22796 1.2221 
1.22209 1.22215 1.22227 1.22214 1.22226 1.22221 1.2222 1.22225 1.22223 
1.22226 1.22216 1.22229 1.22216 1.22224 1.2221 1.2222 1.22221 1.22224 
1.22216 1.22199 1.22201 1.22195 1.22213 1.22214 1.22214 1.222 1.22213 
1.22204 1.2222 1.22219 1.22221 1.22215 1.22213 1.22212 1.2222 1.22218 
1.22222 1.22213 1.22216 1.22215 1.22215 1.22197 1.22215 1.22203 1.22223 
1.22202 1.22212 1.22208 1.22204 1.22206 1.22224 1.22214 1.22223 1.22212 
1.22222 1.22217 1.22217 1.2222 1.22221 1.22212 1.22219 1.22222 1.22215 
1.22224 1.2222 1.22224 1.22221 1.22227 1.22224 1.22229 1.22219 1.22228 
1.22219 1.22229 1.22222 1.22227 1.22217 1.22222 1.22218 1.22235 1.22239 
1.22232 1.22218 1.22215 1.22217 1.22226 1.22237 1.22221 1.22222 1.22229 
1.22227 1.22225 1.22224 1.22225 1.2223 1.22226 1.22227 1.22224 1.22222 
1.22223 1.22216 1.22221 1.22216 1.22223 1.22223 1.22226 1.22219 1.22222 
1.2222 1.22226 1.22222 1.22224 1.22234 1.22225 1.22233 1.2222 1.22203 
1.22223 1.22232 1.2223 1.22232 1.22226 1.22211 1.22227 1.22196 1.22198 
1.22196 1.22211 1.2223 1.2221 1.222 1.22196 1.22202 1.22206 1.2223 
1.22203 1.22227 1.22234 1.22221 1.22227 1.2222 1.22228 1.22219 1.22228 
1.22221 1.22227 1.22225 1.22224 1.22206 1.222 1.2221 1.22202 1.22225 
1.22203 1.22214 1.22205 1.22217 1.22204 1.22215 1.22205 1.2222 1.22223 
1.22222 1.22221 1.2222 1.2222 1.22224 1.2222 1.22225 1.22219 1.22222 
1.22223 1.22222 1.22223 1.22222 1.22221 1.22223 1.22224 1.22221 1.22223 
1.22221 1.22222 1.22223 1.22222 1.22226 1.22219 1.22227 1.22223 1.22221 
1.22222 1.22227 1.22222 1.22229 1.22221 1.22222 1.22221 1.22223 1.22221 
1.22223 1.22222 1.22221 1.22221 1.22222 1.22223 1.22222 1.22223 1.22222 
1.22223 2.2343 2.21131 2.25354 2.23757 2.18887 1.96997 2.06143 2.2298 
2.21673 2.13111 2.18106 1.84736 1.49318 1.59007 1.59153 1.3651 1.41972 
1.25706 1.22313 1.22694 1.31755 1.23616 1.25434 1.22204 1.22223 1.22223 
2.02952 2.3274 1.6974 1.82608 1.41618 1.27811 1.308 1.57557 2.13661 
1.33823 1.33666 1.2424 1.22208 1.22227 1.22571 1.22216 1.22205 1.22213 
1.2222 1.22216 1.22222 1.22225 1.22221 1.2222 1.22219 1.22222 1.22224 
1.22229 1.22215 1.22217 1.22226 1.2222 1.22217 1.22221 1.22221 1.22224 
1.22215 1.22226 1.22223 1.22225 1.22227 1.22216 1.22207 1.22213 1.22224 
1.22225 1.22222 1.22209 1.22206 1.22203 1.22222 1.22218 1.2222 1.22224 
1.22225 1.22218 1.22219 1.22223 1.22217 1.22217 1.22225 1.22221 1.22222 
1.22218 1.22221 1.22201 1.22205 1.22202 1.22221 1.22207 1.22219 1.22201 
1.22217 1.22202 1.22201 1.22207 1.22206 1.22218 1.22222 1.2222 1.22215 
1.22207 1.22218 1.22222 1.22222 1.22224 1.22215 1.22215 1.22212 1.22222 
1.22225 1.2222 1.22213 1.22218 1.22217 1.22221 1.22225 1.22224 1.22212 
1.22216 1.22208 1.22224 1.22214 1.22225 1.22209 1.22222 1.22212 1.22223 
1.22212 1.22221 1.22221 1.2222 1.2222 1.22226 1.22223 1.22225 1.22219 
1.22226 1.2222 1.22221 1.22229 1.22222 1.22225 1.22227 1.22226 1.22222 
1.22221 1.2222 1.22228 1.22224 1.22228 1.2222 1.22221 1.2222 1.2222 
1.22222 1.22221 1.22223 1.22224 1.22222 1.22222 1.22221 1.22221 1.22223 
1.22223 1.22222 1.22225 1.22223 1.22221 1.22219 1.22222 1.22218 1.22218 
1.22224 1.2222 1.22219 1.22226 1.22219 1.22221 1.22221 1.22221 1.22221 
1.22224 1.22221 1.22222 1.22218 1.22224 1.22223 1.22222 1.22223 1.22223 
1.22216 1.22225 1.2222 1.22227 1.22217 1.22223 1.2222 1.22221 1.22216 
1.22218 1.2222 1.22219 1.22212 1.22221 1.22207 1.2221 1.22209 1.22221 
1.22215 1.22218 1.22211 1.22213 1.22212 1.22221 1.22219 1.22223 1.22223 
1.22215 1.22224 1.22221 1.22223 1.22219 1.22223 1.2222 1.22222 1.22213 
1.22214 1.2221 1.22214 1.22214 1.22215 1.22211 1.22206 1.22215 1.22212 
1.22215 1.22205 1.2223 1.22223 1.22229 1.22221 1.22223 1.22222 1.22227 
1.22228 1.22224 1.2222 1.22223 1.22221 1.22223 1.22221 1.22222 1.22222 
1.22221 1.22221 1.22221 1.22222 1.22221 1.22221 1.22222 1.22222 1.22224 
1.22232 1.22224 1.22223 1.22222 1.22225 1.22221 1.22236 1.22219 1.22227 
1.22222 1.22229 1.22222 1.2222 1.22222 1.22222 1.22221 1.22221 1.22221 
1.22223 1.22223 1.22221 1.22222 1.22222 1.22686 1.23659 1.22174 1.2232 
1.22239 1.22224 1.22242 1.22281 1.22357 1.22221 1.22262 1.22241 1.22219 
1.22237 1.2222 1.22221 1.22223 1.22223 1.22221 1.22223 1.22225 1.2222 
1.22223 1.22219 1.22223 1.22218 1.22251 1.22245 1.22256 1.22245 1.2223 
1.22219 1.22224 1.22247 1.22236 1.22264 1.2225 1.2222 1.22227 1.22219 
1.22221 1.22226 1.22221 1.22221 1.22221 1.22225 1.22222 1.22221 1.2222 
1.22223 1.22226 1.22217 1.2222 1.22216 1.22223 1.22229 1.22216 1.22229 
1.22222 1.22219 1.2222 1.2222 1.22213 1.22213 1.22215 1.22203 1.22207 
1.22209 1.22214 1.22216 1.22202 1.22208 1.22203 1.22218 1.22214 1.22217 
1.22221 1.22227 1.22224 1.2221 1.22197 1.22208 1.22222 1.22216 1.22217 
1.22203 1.22205 1.22201 1.22206 1.22214 1.22209 1.22219 1.22219 1.2222 
1.22209 1.22217 1.22208 1.22219 1.2222 1.22217 1.22217 1.22224 1.2222 
1.22215 1.22217 1.22212 1.22221 1.22225 1.22221 1.22214 1.22217 1.22214 
1.22224 1.22223 1.22228 1.22227 1.22224 1.22227 1.22226 1.22225 1.22219 
1.22224 1.22225 1.22224 1.22222 1.22216 1.22223 1.22215 1.22231 1.22221 
1.22223 1.22212 1.22221 1.22226 1.22222 1.22227 1.22218 1.22223 1.22221 
1.22228 1.2222 1.22229 1.22221 1.22226 1.22217 1.22226 1.22222 1.22225 
1.22223 1.22219 1.22222 1.22219 1.22223 1.2222 1.22222 1.2222 1.22224 
1.22221 1.22223 1.22223 1.22222 1.22222 1.22219 1.22222 1.22223 1.22221 
1.22218 1.22223 1.2222 1.22221 1.2222 1.22221 1.22224 1.22222 1.22223 
1.22223 1.2222 1.22222 1.22222 1.2222 1.22223 1.2222 1.2222 1.2222 