# vtk DataFile Version 3.0
vtk output
ASCII
DATASET UNSTRUCTURED_GRID
FIELD FieldData 1
avtOriginalBounds 1 6 double
-0.75 0.75 -0.5 0.5 0 0 
POINTS 221 double
0.75 -0.232051 0 0.75 -0.110042 0 0.552083 -0.154701 0 
0.55 -0.285641 0 0.75 0.011966 0 0.554167 -0.0237605 0 
0.75 0.133974 0 0.55625 0.10718 0 0.75 0.255983 0 
0.558333 0.23812 0 0.75 0.377992 0 0.560417 0.36906 0 
0.75 0.5 0 0.5625 0.5 0 0.354167 -0.199359 0 
0.35 -0.339231 0 0.358333 -0.0594871 0 0.3625 0.0803847 0 
0.366667 0.220256 0 0.370833 0.360128 0 0.375 0.5 0 
0.15625 -0.244017 0 0.15 -0.39282 0 0.1625 -0.0952136 0 
0.16875 0.0535898 0 0.175 0.202393 0 0.18125 0.351197 0 
0.1875 0.5 0 -0.0416667 -0.288675 0 -0.05 -0.44641 0 
-0.0333333 -0.13094 0 -0.025 0.0267949 0 -0.0166667 0.18453 0 
-0.00833333 0.342265 0 0 0.5 0 -0.239583 -0.333333 0 
-0.25 -0.5 0 -0.229167 -0.166667 0 -0.21875 6.05576e-18 0 
-0.208333 0.166667 0 -0.197917 0.333333 0 -0.1875 0.5 0 
-0.409722 -0.333333 0 -0.416667 -0.5 0 -0.402778 -0.166667 0 
-0.395833 6.05576e-18 0 -0.388889 0.166667 0 -0.381944 0.333333 0 
-0.375 0.5 0 -0.579861 -0.333333 0 -0.583333 -0.5 0 
-0.576389 -0.166667 0 -0.572917 6.05576e-18 0 -0.569444 0.166667 0 
-0.565972 0.333333 0 -0.5625 0.5 0 -0.75 -0.333333 0 
-0.75 -0.5 0 -0.75 -0.166667 0 -0.75 0 0 
-0.75 0.166667 0 -0.75 0.333333 0 -0.75 0.5 0 
0.75 -0.171047 0 0.650521 -0.195609 0 0.65 -0.258846 0 
0.651042 -0.132372 0 0.551042 -0.220171 0 0.75 -0.0490382 0 
0.651563 -0.0691344 0 0.652083 -0.00589727 0 0.553125 -0.0892306 0 
0.75 0.0729703 0 0.652604 0.0573399 0 0.653125 0.120577 0 
0.555208 0.0417095 0 0.75 0.194979 0 0.653646 0.183814 0 
0.654167 0.247051 0 0.557292 0.17265 0 0.75 0.316987 0 
0.654687 0.310289 0 0.655208 0.373526 0 0.559375 0.30359 0 
0.75 0.438996 0 0.655729 0.436763 0 0.65625 0.5 0 
0.561458 0.43453 0 0.451562 -0.244733 0 0.45 -0.312436 0 
0.453125 -0.17703 0 0.352083 -0.269295 0 0.454688 -0.109327 0 
0.45625 -0.0416238 0 0.35625 -0.129423 0 0.457812 0.0260792 0 
0.459375 0.0937821 0 0.360417 0.0104488 0 0.460937 0.161485 0 
0.4625 0.229188 0 0.364583 0.150321 0 0.464062 0.296891 0 
0.465625 0.364594 0 0.36875 0.290192 0 0.467187 0.432297 0 
0.46875 0.5 0 0.372917 0.430064 0 0.252604 -0.293857 0 
0.25 -0.366026 0 0.255208 -0.221688 0 0.153125 -0.318419 0 
0.257812 -0.149519 0 0.260417 -0.0773503 0 0.159375 -0.169615 0 
0.263021 -0.00518154 0 0.265625 0.0669872 0 0.165625 -0.0208119 0 
0.268229 0.139156 0 0.270833 0.211325 0 0.171875 0.127992 0 
0.273437 0.283494 0 0.276042 0.355662 0 0.178125 0.276795 0 
0.278646 0.427831 0 0.28125 0.5 0 0.184375 0.425598 0 
0.0536458 -0.342981 0 0.05 -0.419615 0 0.0572917 -0.266346 0 
-0.0458333 -0.367543 0 0.0609375 -0.189711 0 0.0645833 -0.113077 0 
-0.0375 -0.209808 0 0.0682292 -0.0364423 0 0.071875 0.0401924 0 
-0.0291667 -0.0520726 0 0.0755208 0.116827 0 0.0791667 0.193462 0 
-0.0208333 0.105662 0 0.0828125 0.270096 0 0.0864583 0.346731 0 
-0.0125 0.263397 0 0.0901042 0.423365 0 0.09375 0.5 0 
-0.00416667 0.421132 0 -0.145313 -0.392105 0 -0.15 -0.473205 0 
-0.140625 -0.311004 0 -0.244792 -0.416667 0 -0.135937 -0.229904 0 
-0.13125 -0.148803 0 -0.234375 -0.25 0 -0.126562 -0.067703 0 
-0.121875 0.0133975 0 -0.223958 -0.0833333 0 -0.117187 0.0944979 0 
-0.1125 0.175598 0 -0.213542 0.0833333 0 -0.107812 0.256699 0 
-0.103125 0.337799 0 -0.203125 0.25 0 -0.0984375 0.4189 0 
-0.09375 0.5 0 -0.192708 0.416667 0 -0.328993 -0.416667 0 
-0.333333 -0.5 0 -0.324653 -0.333333 0 -0.413194 -0.416667 0 
-0.320312 -0.25 0 -0.315972 -0.166667 0 -0.40625 -0.25 0 
-0.311632 -0.0833333 0 -0.307292 6.05576e-18 0 -0.399306 -0.0833333 0 
-0.302951 0.0833333 0 -0.298611 0.166667 0 -0.392361 0.0833333 0 
-0.294271 0.25 0 -0.289931 0.333333 0 -0.385417 0.25 0 
-0.28559 0.416667 0 -0.28125 0.5 0 -0.378472 0.416667 0 
-0.497396 -0.416667 0 -0.5 -0.5 0 -0.494792 -0.333333 0 
-0.581597 -0.416667 0 -0.492188 -0.25 0 -0.489583 -0.166667 0 
-0.578125 -0.25 0 -0.486979 -0.0833333 0 -0.484375 6.05576e-18 0 
-0.574653 -0.0833333 0 -0.481771 0.0833333 0 -0.479167 0.166667 0 
-0.571181 0.0833333 0 -0.476562 0.25 0 -0.473958 0.333333 0 
-0.567708 0.25 0 -0.471354 0.416667 0 -0.46875 0.5 0 
-0.564236 0.416667 0 -0.665799 -0.416667 0 -0.666667 -0.5 0 
-0.664931 -0.333333 0 -0.75 -0.416667 0 -0.664062 -0.25 0 
-0.663194 -0.166667 0 -0.75 -0.25 0 -0.662326 -0.0833333 0 
-0.661458 3.02788e-18 0 -0.75 -0.0833333 0 -0.66059 0.0833333 0 
-0.659722 0.166667 0 -0.75 0.0833333 0 -0.658854 0.25 0 
-0.657986 0.333333 0 -0.75 0.25 0 -0.657118 0.416667 0 
-0.65625 0.5 0 -0.75 0.416667 0 
CELLS 192 960
4 0 63 64 65 
4 63 1 66 64 
4 65 64 67 3 
4 64 66 2 67 
4 1 68 69 66 
4 68 4 70 69 
4 66 69 71 2 
4 69 70 5 71 
4 4 72 73 70 
4 72 6 74 73 
4 70 73 75 5 
4 73 74 7 75 
4 6 76 77 74 
4 76 8 78 77 
4 74 77 79 7 
4 77 78 9 79 
4 8 80 81 78 
4 80 10 82 81 
4 78 81 83 9 
4 81 82 11 83 
4 10 84 85 82 
4 84 12 86 85 
4 82 85 87 11 
4 85 86 13 87 
4 3 67 88 89 
4 67 2 90 88 
4 89 88 91 15 
4 88 90 14 91 
4 2 71 92 90 
4 71 5 93 92 
4 90 92 94 14 
4 92 93 16 94 
4 5 75 95 93 
4 75 7 96 95 
4 93 95 97 16 
4 95 96 17 97 
4 7 79 98 96 
4 79 9 99 98 
4 96 98 100 17 
4 98 99 18 100 
4 9 83 101 99 
4 83 11 102 101 
4 99 101 103 18 
4 101 102 19 103 
4 11 87 104 102 
4 87 13 105 104 
4 102 104 106 19 
4 104 105 20 106 
4 15 91 107 108 
4 91 14 109 107 
4 108 107 110 22 
4 107 109 21 110 
4 14 94 111 109 
4 94 16 112 111 
4 109 111 113 21 
4 111 112 23 113 
4 16 97 114 112 
4 97 17 115 114 
4 112 114 116 23 
4 114 115 24 116 
4 17 100 117 115 
4 100 18 118 117 
4 115 117 119 24 
4 117 118 25 119 
4 18 103 120 118 
4 103 19 121 120 
4 118 120 122 25 
4 120 121 26 122 
4 19 106 123 121 
4 106 20 124 123 
4 121 123 125 26 
4 123 124 27 125 
4 22 110 126 127 
4 110 21 128 126 
4 127 126 129 29 
4 126 128 28 129 
4 21 113 130 128 
4 113 23 131 130 
4 128 130 132 28 
4 130 131 30 132 
4 23 116 133 131 
4 116 24 134 133 
4 131 133 135 30 
4 133 134 31 135 
4 24 119 136 134 
4 119 25 137 136 
4 134 136 138 31 
4 136 137 32 138 
4 25 122 139 137 
4 122 26 140 139 
4 137 139 141 32 
4 139 140 33 141 
4 26 125 142 140 
4 125 27 143 142 
4 140 142 144 33 
4 142 143 34 144 
4 29 129 145 146 
4 129 28 147 145 
4 146 145 148 36 
4 145 147 35 148 
4 28 132 149 147 
4 132 30 150 149 
4 147 149 151 35 
4 149 150 37 151 
4 30 135 152 150 
4 135 31 153 152 
4 150 152 154 37 
4 152 153 38 154 
4 31 138 155 153 
4 138 32 156 155 
4 153 155 157 38 
4 155 156 39 157 
4 32 141 158 156 
4 141 33 159 158 
4 156 158 160 39 
4 158 159 40 160 
4 33 144 161 159 
4 144 34 162 161 
4 159 161 163 40 
4 161 162 41 163 
4 36 148 164 165 
4 148 35 166 164 
4 165 164 167 43 
4 164 166 42 167 
4 35 151 168 166 
4 151 37 169 168 
4 166 168 170 42 
4 168 169 44 170 
4 37 154 171 169 
4 154 38 172 171 
4 169 171 173 44 
4 171 172 45 173 
4 38 157 174 172 
4 157 39 175 174 
4 172 174 176 45 
4 174 175 46 176 
4 39 160 177 175 
4 160 40 178 177 
4 175 177 179 46 
4 177 178 47 179 
4 40 163 180 178 
4 163 41 181 180 
4 178 180 182 47 
4 180 181 48 182 
4 43 167 183 184 
4 167 42 185 183 
4 184 183 186 50 
4 183 185 49 186 
4 42 170 187 185 
4 170 44 188 187 
4 185 187 189 49 
4 187 188 51 189 
4 44 173 190 188 
4 173 45 191 190 
4 188 190 192 51 
4 190 191 52 192 
4 45 176 193 191 
4 176 46 194 193 
4 191 193 195 52 
4 193 194 53 195 
4 46 179 196 194 
4 179 47 197 196 
4 194 196 198 53 
4 196 197 54 198 
4 47 182 199 197 
4 182 48 200 199 
4 197 199 201 54 
4 199 200 55 201 
4 50 186 202 203 
4 186 49 204 202 
4 203 202 205 57 
4 202 204 56 205 
4 49 189 206 204 
4 189 51 207 206 
4 204 206 208 56 
4 206 207 58 208 
4 51 192 209 207 
4 192 52 210 209 
4 207 209 211 58 
4 209 210 59 211 
4 52 195 212 210 
4 195 53 213 212 
4 210 212 214 59 
4 212 213 60 214 
4 53 198 215 213 
4 198 54 216 215 
4 213 215 217 60 
4 215 216 61 217 
4 54 201 218 216 
4 201 55 219 218 
4 216 218 220 61 
4 218 219 62 220 

CELL_TYPES 192
9
9
9
9
9
9
9
9
9
9
9
9
9
9
9
9
9
9
9
9
9
9
9
9
9
9
9
9
9
9
9
9
9
9
9
9
9
9
9
9
9
9
9
9
9
9
9
9
9
9
9
9
9
9
9
9
9
9
9
9
9
9
9
9
9
9
9
9
9
9
9
9
9
9
9
9
9
9
9
9
9
9
9
9
9
9
9
9
9
9
9
9
9
9
9
9
9
9
9
9
9
9
9
9
9
9
9
9
9
9
9
9
9
9
9
9
9
9
9
9
9
9
9
9
9
9
9
9
9
9
9
9
9
9
9
9
9
9
9
9
9
9
9
9
9
9
9
9
9
9
9
9
9
9
9
9
9
9
9
9
9
9
9
9
9
9
9
9
9
9
9
9
9
9
9
9
9
9
9
9
9
9
9
9
9
9
9
9
9
9
9
9

POINT_DATA 221
SCALARS density_aux double
LOOKUP_TABLE default
2.2158 2.23576 2.22125 2.22506 2.2195 2.07921 2.05658 1.7523 1.71899 
1.46962 1.44067 1.3044 1.39694 1.25291 2.08512 2.3192 1.77919 1.49025 
1.30953 1.23743 1.21991 1.85045 2.33923 1.51907 1.32665 1.241 1.22173 
1.22132 1.57818 2.13475 1.34258 1.24488 1.22247 1.22199 1.22171 1.33528 
1.49303 1.24259 1.22194 1.22255 1.22207 1.2221 1.22538 1.2349 1.22101 
1.22242 1.22252 1.222 1.22203 1.22259 1.22434 1.22141 1.22239 1.22248 
1.22204 1.22214 1.22221 1.22221 1.22221 1.22221 1.22221 1.22221 1.22221 
2.22085 2.23061 2.21893 2.2348 2.2438 2.24198 2.22274 2.17079 2.17161 
2.15808 2.08016 1.9388 1.93839 1.90563 1.76031 1.59592 1.59401 1.55529 
1.46754 1.37648 1.37221 1.38061 1.32287 1.32025 1.26446 2.2412 2.25766 
2.17695 2.1863 2.08287 1.94596 1.95452 1.76162 1.60142 1.616 1.48101 
1.38023 1.38585 1.30779 1.26309 1.26385 1.23783 1.22953 1.22456 2.09443 
2.35077 1.9764 1.98364 1.82057 1.64006 1.68296 1.50563 1.39683 1.41013 
1.31653 1.26809 1.27209 1.23977 1.22557 1.22551 1.22237 1.22336 1.22167 
1.85232 2.27622 1.71619 1.7024 1.55714 1.42268 1.44239 1.33818 1.27786 
1.28288 1.24286 1.22665 1.22753 1.22243 1.22246 1.22206 1.22281 1.22278 
1.22158 1.54079 1.9083 1.44671 1.38862 1.34785 1.28196 1.2752 1.24622 
1.22792 1.22719 1.22247 1.22219 1.22227 1.22247 1.22264 1.22222 1.22294 
1.22256 1.22155 1.27539 1.25466 1.25459 1.2286 1.23219 1.22442 1.22203 
1.22115 1.22205 1.22219 1.22261 1.22217 1.22205 1.2225 1.22277 1.22239 
1.22296 1.22259 1.22187 1.22014 1.21788 1.22028 1.2221 1.22155 1.22211 
1.22219 1.22202 1.22206 1.22244 1.22223 1.22227 1.22189 1.22253 1.22278 
1.22237 1.22306 1.22266 1.22209 1.21999 1.2197 1.22104 1.22221 1.22162 
1.22225 1.22221 1.22239 1.22182 1.22221 1.22218 1.22225 1.22221 1.22243 
1.22295 1.22221 1.22282 1.22316 1.22221 
FIELD FieldData 1
exact_rho_aux 1 221 double
2.28132 2.28132 2.28132 2.28132 2.28132 2.28132 2.28132 1.22221 1.22221 
1.22221 1.22221 1.22221 1.22221 1.22221 2.28132 2.28132 2.28132 1.22221 
1.22221 1.22221 1.22221 2.28132 2.28132 1.22221 1.22221 1.22221 1.22221 
1.22221 1.22221 2.28132 1.22221 1.22221 1.22221 1.22221 1.22221 1.22221 
2.28132 1.22221 1.22221 1.22221 1.22221 1.22221 1.22221 1.22221 1.22221 
1.22221 1.22221 1.22221 1.22221 1.22221 1.22221 1.22221 1.22221 1.22221 
1.22221 1.22221 1.22221 1.22221 1.22221 1.22221 1.22221 1.22221 1.22221 
2.28132 2.28132 2.28132 2.28132 2.28132 2.28132 2.28132 2.28132 2.28132 
2.28132 2.28132 2.28132 2.28132 2.28132 1.22221 1.22221 1.22221 1.22221 
1.22221 1.22221 1.22221 1.22221 1.22221 1.22221 1.22221 2.28132 2.28132 
2.28132 2.28132 2.28132 2.28132 2.28132 2.28132 1.22221 1.22221 1.22221 
1.22221 1.22221 1.22221 1.22221 1.22221 1.22221 1.22221 1.22221 2.28132 
2.28132 2.28132 2.28132 2.28132 1.22221 1.22221 1.22221 1.22221 1.22221 
1.22221 1.22221 1.22221 1.22221 1.22221 1.22221 1.22221 1.22221 1.22221 
2.28132 2.28132 1.22221 2.28132 1.22221 1.22221 1.22221 1.22221 1.22221 
1.22221 1.22221 1.22221 1.22221 1.22221 1.22221 1.22221 1.22221 1.22221 
1.22221 1.22221 2.28132 1.22221 1.22221 1.22221 1.22221 1.22221 1.22221 
1.22221 1.22221 1.22221 1.22221 1.22221 1.22221 1.22221 1.22221 1.22221 
1.22221 1.22221 1.22221 1.22221 1.22221 1.22221 1.22221 1.22221 1.22221 
1.22221 1.22221 1.22221 1.22221 1.22221 1.22221 1.22221 1.22221 1.22221 
1.22221 1.22221 1.22221 1.22221 1.22221 1.22221 1.22221 1.22221 1.22221 
1.22221 1.22221 1.22221 1.22221 1.22221 1.22221 1.22221 1.22221 1.22221 
1.22221 1.22221 1.22221 1.22221 1.22221 1.22221 1.22221 1.22221 1.22221 
1.22221 1.22221 1.22221 1.22221 1.22221 1.22221 1.22221 1.22221 1.22221 
1.22221 1.22221 1.22221 1.22221 1.22221 
